Program Version,EnergyPlus, Version 9.5.0-de239b2e5f, YMD=2022.11.22 15:33
1,5,Environment Title[],Latitude[deg],Longitude[deg],Time Zone[],Elevation[m]
2,8,Day of Simulation[],Month[],Day of Month[],DST Indicator[1=yes 0=no],Hour[],StartMinute[],EndMinute[],DayType
3,5,Cumulative Day of Simulation[],Month[],Day of Month[],DST Indicator[1=yes 0=no],DayType  ! When Daily Report Variables Requested
4,2,Cumulative Days of Simulation[],Month[]  ! When Monthly Report Variables Requested
5,1,Cumulative Days of Simulation[] ! When Run Period Report Variables Requested
6,1,Calendar Year of Simulation[] ! When Annual Report Variables Requested
7,1,Environment,Site Outdoor Air Drybulb Temperature [C] !TimeStep
8,1,ZONE ONE,Zone Windows Total Transmitted Solar Radiation Rate [W] !TimeStep
9,1,ZN001:WALL001,Surface Outside Face Sunlit Fraction [] !TimeStep
10,1,ZN001:WALL001,Surface Outside Face Incident Solar Radiation Rate per Area [W/m2] !TimeStep
11,1,ZN001:WALL001:WIN001,Surface Outside Face Sunlit Fraction [] !TimeStep
12,1,ZN001:WALL001:WIN001,Surface Outside Face Incident Solar Radiation Rate per Area [W/m2] !TimeStep
13,1,ZN001:WALL001:WIN001,Surface Window Transmitted Solar Radiation Rate [W] !TimeStep
14,1,ZN001:WALL001,Surface Inside Face Temperature [C] !TimeStep
15,1,ZN001:WALL001,Surface Outside Face Temperature [C] !TimeStep
16,1,ZN001:WALL001:WIN001,Surface Inside Face Temperature [C] !TimeStep
17,1,ZN001:WALL001:WIN001,Surface Outside Face Temperature [C] !TimeStep
18,1,ZONE ONE,Zone Mean Air Temperature [C] !TimeStep
End of Data Dictionary
1,RUN PERIOD 1,  41.98, -87.92,  -6.00, 201.00
2,1, 1, 1, 0, 1, 0.00,15.00,Tuesday
7,-4.324999999999999
8,0.0
9,0.0
10,0.0
11,0.0
12,0.0
13,0.0
14,3.5205054947612166
15,-5.939816453184472
16,0.7633411883451799
17,-4.147426432736495
18,3.907919747198221
2,1, 1, 1, 0, 1,15.00,30.00,Tuesday
7,-6.949999999999999
8,0.0
9,0.0
10,0.0
11,0.0
12,0.0
13,0.0
14,3.3375003644864216
15,-8.407660561830703
16,-0.04014335031433802
17,-6.089227296393517
18,3.8089979275234508
2,1, 1, 1, 0, 1,30.00,45.00,Tuesday
7,-9.575
8,0.0
9,0.0
10,0.0
11,0.0
12,0.0
13,0.0
14,3.1315512147796076
15,-10.883806182509178
16,-0.847850962000166
17,-8.037119082615789
18,3.6747442364618507
2,1, 1, 1, 0, 1,45.00,60.00,Tuesday
7,-12.2
8,0.0
9,0.0
10,0.0
11,0.0
12,0.0
13,0.0
14,2.9075073898591055
15,-13.36649930067256
16,-1.6698450938834527
17,-9.993623589831202
18,3.5155986695777807
2,1, 1, 1, 0, 2, 0.00,15.00,Tuesday
7,-12.075
8,0.0
9,0.0
10,0.0
11,0.0
12,0.0
13,0.0
14,2.8406535951926656
15,-13.167952457566301
16,-1.7058831173511067
17,-9.857596159507694
18,3.373107612203464
2,1, 1, 1, 0, 2,15.00,30.00,Tuesday
7,-11.95
8,0.0
9,0.0
10,0.0
11,0.0
12,0.0
13,0.0
14,2.758899185740215
15,-12.990885529458505
16,-1.7139481132916217
17,-9.741059950662646
18,3.265977680303997
2,1, 1, 1, 0, 2,30.00,45.00,Tuesday
7,-11.825
8,0.0
9,0.0
10,0.0
11,0.0
12,0.0
13,0.0
14,2.6960228208495096
15,-12.812525618354524
16,-1.7196005655686122
17,-9.614711652056826
18,3.1882888570440968
2,1, 1, 1, 0, 2,45.00,60.00,Tuesday
7,-11.7
8,0.0
9,0.0
10,0.0
11,0.0
12,0.0
13,0.0
14,2.645423172353727
15,-12.63424396520204
16,-1.7131620897877156
17,-9.483127223356746
18,3.1279118012373789
2,1, 1, 1, 0, 3, 0.00,15.00,Tuesday
7,-11.549999999999999
8,0.0
9,0.0
10,0.0
11,0.0
12,0.0
13,0.0
14,2.5969798299957387
15,-12.509099581612674
16,-1.6961511900312872
17,-9.342959510390188
18,3.0751154413287216
2,1, 1, 1, 0, 3,15.00,30.00,Tuesday
7,-11.399999999999999
8,0.0
9,0.0
10,0.0
11,0.0
12,0.0
13,0.0
14,2.5520911941260517
15,-12.385366696667793
16,-1.6771984226390942
17,-9.202284755932169
18,3.0250643462766955
2,1, 1, 1, 0, 3,30.00,45.00,Tuesday
7,-11.25
8,0.0
9,0.0
10,0.0
11,0.0
12,0.0
13,0.0
14,2.5082773962822069
15,-12.26320809993689
16,-1.656506530276829
17,-9.06137147398141
18,2.9762757201536744
2,1, 1, 1, 0, 3,45.00,60.00,Tuesday
7,-11.1
8,0.0
9,0.0
10,0.0
11,0.0
12,0.0
13,0.0
14,2.4650964035178037
15,-12.142681157167097
16,-1.6351590000067518
17,-8.920661468070137
18,2.9284982586971
2,1, 1, 1, 0, 4, 0.00,15.00,Tuesday
7,-11.1
8,0.0
9,0.0
10,0.0
11,0.0
12,0.0
13,0.0
14,2.4179335655428799
15,-12.113043110008672
16,-1.6924306736089534
17,-8.956828652422246
18,2.880407214856779
2,1, 1, 1, 0, 4,15.00,30.00,Tuesday
7,-11.1
8,0.0
9,0.0
10,0.0
11,0.0
12,0.0
13,0.0
14,2.3711228275503468
15,-12.084562358585579
16,-1.7416574379088843
17,-8.999821232163356
18,2.8315409943974485
2,1, 1, 1, 0, 4,30.00,45.00,Tuesday
7,-11.1
8,0.0
9,0.0
10,0.0
11,0.0
12,0.0
13,0.0
14,2.323982873373656
15,-12.057675208772946
16,-1.7896709296854852
17,-9.042837961519979
18,2.782120148969782
2,1, 1, 1, 0, 4,45.00,60.00,Tuesday
7,-11.1
8,0.0
9,0.0
10,0.0
11,0.0
12,0.0
13,0.0
14,2.276665496163946
15,-12.032244692264419
16,-1.8373327101864448
17,-9.084948789860278
18,2.7324841808458837
2,1, 1, 1, 0, 5, 0.00,15.00,Tuesday
7,-10.975
8,0.0
9,0.0
10,0.0
11,0.0
12,0.0
13,0.0
14,2.2352439010638807
15,-11.91018593131836
16,-1.8315625585418048
17,-9.0085503464598
18,2.68412832327852
2,1, 1, 1, 0, 5,15.00,30.00,Tuesday
7,-10.85
8,0.0
9,0.0
10,0.0
11,0.0
12,0.0
13,0.0
14,2.194097950979359
15,-11.788205873828046
16,-1.8288823548637084
17,-8.924516996793614
18,2.6376332891822629
2,1, 1, 1, 0, 5,30.00,45.00,Tuesday
7,-10.725
8,0.0
9,0.0
10,0.0
11,0.0
12,0.0
13,0.0
14,2.154090208857816
15,-11.6662004086205
16,-1.8261259404177395
17,-8.839378214301917
18,2.5927217735847569
2,1, 1, 1, 0, 5,45.00,60.00,Tuesday
7,-10.6
8,0.0
9,0.0
10,0.0
11,0.0
12,0.0
13,0.0
14,2.115029650224988
15,-11.544203643878453
16,-1.822595093346422
17,-8.753856604505359
18,2.5489367958746329
2,1, 1, 1, 0, 6, 0.00,15.00,Tuesday
7,-10.6
8,0.0
9,0.0
10,0.0
11,0.0
12,0.0
13,0.0
14,2.0687317448454447
15,-11.545132794619566
16,-1.8545782883645643
17,-8.760409666896465
18,2.5046013409364336
2,1, 1, 1, 0, 6,15.00,30.00,Tuesday
7,-10.6
8,0.0
9,0.0
10,0.0
11,0.0
12,0.0
13,0.0
14,2.0229943634858338
15,-11.545985872407952
16,-1.8932620026850487
17,-8.768398428329533
18,2.458737161975478
2,1, 1, 1, 0, 6,30.00,45.00,Tuesday
7,-10.6
8,0.0
9,0.0
10,0.0
11,0.0
12,0.0
13,0.0
14,1.976704363455254
15,-11.546888172204339
16,-1.927954698140013
17,-8.77871127134398
18,2.411646416021627
2,1, 1, 1, 0, 6,45.00,60.00,Tuesday
7,-10.6
8,0.0
9,0.0
10,0.0
11,0.0
12,0.0
13,0.0
14,1.9300324456704126
15,-11.54778839981659
16,-1.9627246653215594
17,-8.789634766898417
18,2.363942587789729
2,1, 1, 1, 0, 7, 0.00,15.00,Tuesday
7,-10.6
8,0.0
9,0.0
10,0.0
11,0.0
12,0.0
13,0.0
14,1.8853698084687636
15,-11.523319807778537
16,-2.0090596413795085
17,-8.825743775560796
18,2.3162880459334858
2,1, 1, 1, 0, 7,15.00,30.00,Tuesday
7,-10.6
8,0.0
9,0.0
10,0.0
11,0.0
12,0.0
13,0.0
14,1.8405431098762784
15,-11.500123297619698
16,-2.053155294652697
17,-8.862107450675069
18,2.269038174132952
2,1, 1, 1, 0, 7,30.00,45.00,Tuesday
7,-10.6
8,0.0
9,0.0
10,0.0
11,0.0
12,0.0
13,0.0
14,1.7959600921321198
15,-11.478104231983414
16,-2.0966268179051896
17,-8.89768131509851
18,2.2222058906198867
2,1, 1, 1, 0, 7,45.00,60.00,Tuesday
7,-10.6
8,0.0
9,0.0
10,0.0
11,0.0
12,0.0
13,0.0
14,1.7516460123888285
15,-11.45719259488182
16,-2.139501667071272
17,-8.932251696901517
18,2.17570568649302
2,1, 1, 1, 0, 8, 0.00,15.00,Tuesday
7,-10.45
8,0.0
9,0.0
10,0.0
11,0.0
12,0.0
13,0.0
14,1.7068528467205813
15,-11.408910538193421
16,-2.1391560385330878
17,-8.893381110529731
18,2.12947157933955
2,1, 1, 1, 0, 8,15.00,30.00,Tuesday
7,-10.3
8,123.87783879393521
9,1.0
10,22.819555959623899
11,1.0
12,22.819555959623899
13,123.87783879393521
14,1.7784732160245083
15,-9.735632048225874
16,-1.7334813553093227
17,-8.462995151270548
18,2.101106142850961
2,1, 1, 1, 0, 8,30.00,45.00,Tuesday
7,-10.15
8,609.2361052149693
9,1.0
10,109.75755355442667
11,1.0
12,109.75755355442667
13,609.2361052149693
14,2.168874532863567
15,-3.370903088027971
16,-0.10399341389387473
17,-7.024478520737716
18,2.13926891506147
2,1, 1, 1, 0, 8,45.00,60.00,Tuesday
7,-10.0
8,1111.172358445356
9,1.0
10,195.8764694434918
11,1.0
12,195.8764694434918
13,1111.172358445356
14,2.669272117116297
15,3.121117426071268
16,1.6041162479261857
17,-5.596243791893926
18,2.2498305645834049
2,1, 1, 1, 0, 9, 0.00,15.00,Tuesday
7,-9.725
8,1614.8145795115179
9,1.0
10,278.97248314719988
11,1.0
12,278.97248314719988
13,1614.8145795115179
14,3.049001192924832
15,8.294554554677239
16,3.2832665036347636
17,-4.337754720992621
18,2.410701366196449
2,1, 1, 1, 0, 9,15.00,30.00,Tuesday
7,-9.45
8,2149.451485223683
9,1.0
10,364.91995730569456
11,1.0
12,364.91995730569456
13,2149.451485223683
14,3.4645102475432867
15,13.376040306401912
16,4.881382233206978
17,-3.1269946490392614
18,2.614334690503022
2,1, 1, 1, 0, 9,30.00,45.00,Tuesday
7,-9.175
8,2508.346142106506
9,1.0
10,420.35879993239237
11,1.0
12,420.35879993239237
13,2508.346142106506
14,3.7573311974418446
15,16.134729256622767
16,5.898571088259928
17,-2.3893358883203179
18,2.8403356281214449
2,1, 1, 1, 0, 9,45.00,60.00,Tuesday
7,-8.9
8,2882.8423826304649
9,1.0
10,478.00138373643099
11,1.0
12,478.00138373643099
13,2882.8423826304649
14,4.100140198867995
15,19.130144676928269
16,6.925184267778036
17,-1.6348196449462194
18,3.0788391016422249
2,1, 1, 1, 0,10, 0.00,15.00,Tuesday
7,-8.350000000000002
8,3267.2031696683186
9,1.0
10,536.9185644770597
11,1.0
12,536.9185644770597
13,3267.2031696683186
14,4.3869049658367829
15,20.249104222659985
16,7.949266002971854
17,-0.9272376079387641
18,3.330367990791239
2,1, 1, 1, 0,10,15.00,30.00,Tuesday
7,-7.800000000000001
8,3666.413291120194
9,1.0
10,598.0969199229219
11,1.0
12,598.0969199229219
13,3666.413291120194
14,4.700754995606058
15,21.503097552185886
16,8.992031057995974
17,-0.21895575387662803
18,3.604508000140274
2,1, 1, 1, 0,10,30.00,45.00,Tuesday
7,-7.25
8,3933.0550318077687
9,1.0
10,637.6133352894237
11,1.0
12,637.6133352894237
13,3933.0550318077687
14,4.943014557191646
15,21.56380239403767
16,9.70989198833513
17,0.23737246379982936
18,3.8870748922903419
2,1, 1, 1, 0,10,45.00,60.00,Tuesday
7,-6.7
8,4196.486591460473
9,1.0
10,676.6412284283772
11,1.0
12,676.6412284283772
13,4196.486591460473
14,5.20751925898136
15,21.72478155784104
16,10.406227367289262
17,0.6918164914242198
18,4.166377785129606
2,1, 1, 1, 0,11, 0.00,15.00,Tuesday
7,-6.275
8,4455.537253102586
9,1.0
10,715.0112779846514
11,1.0
12,715.0112779846514
13,4455.537253102586
14,5.549315921182437
15,23.822534249559874
16,11.19485146780005
17,1.4377703950886485
18,4.445495903238896
2,1, 1, 1, 0,11,15.00,30.00,Tuesday
7,-5.85
8,4708.589163533651
9,1.0
10,752.5077794605232
11,1.0
12,752.5077794605232
13,4708.589163533651
14,5.87960611494112
15,25.75780473860985
16,11.968751157354518
17,2.165041395954063
18,4.729112587789434
2,1, 1, 1, 0,11,30.00,45.00,Tuesday
7,-5.425
8,4641.071437787818
9,1.0
10,742.5988714321785
11,1.0
12,742.5988714321785
13,4641.071437787818
14,6.075017540671404
15,25.609834148678496
16,12.111028503955481
17,2.427410628557709
18,4.999256977235989
2,1, 1, 1, 0,11,45.00,60.00,Tuesday
7,-5.0
8,4540.491218891129
9,1.0
10,727.8169025450712
11,1.0
12,727.8169025450712
13,4540.491218891129
14,6.266011528217856
15,25.380796843395925
16,12.16758133376328
17,2.651291233209122
18,5.242713550472603
2,1, 1, 1, 0,12, 0.00,15.00,Tuesday
7,-4.575
8,4364.563258174008
9,1.0
10,700.3759009170325
11,1.0
12,700.3759009170325
13,4364.563258174008
14,6.400424522167975
15,24.638325638347529
16,12.054915781488149
17,2.789377647025958
18,5.4522910151389489
2,1, 1, 1, 0,12,15.00,30.00,Tuesday
7,-4.15
8,4231.2947904945499
9,1.0
10,681.6705029034473
11,1.0
12,681.6705029034473
13,4231.2947904945499
14,6.554381248295905
15,24.307970189614456
16,12.05762597025182
17,3.020358955110339
18,5.635881843350141
2,1, 1, 1, 0,12,30.00,45.00,Tuesday
7,-3.7249999999999998
8,3710.7631796802099
9,1.0
10,602.01865277251
11,1.0
12,602.01865277251
13,3710.7631796802099
14,6.474030136072719
15,21.279729169483454
16,11.223729589469145
17,2.6664712733361286
18,5.771468743478841
2,1, 1, 1, 0,12,45.00,60.00,Tuesday
7,-3.3
8,3028.0947855069919
9,1.0
10,493.55004396206007
11,1.0
12,493.55004396206007
13,3028.0947855069919
14,6.286407417601722
15,17.10133069639536
16,9.882048792869
17,1.9909737659569942
18,5.834803479848152
2,1, 1, 1, 0,13, 0.00,15.00,Tuesday
7,-3.0249999999999996
8,2493.066776141015
9,1.0
10,412.335026418112
11,1.0
12,412.335026418112
13,2493.066776141015
14,6.1540667526962828
15,14.256887562466483
16,8.865365919741067
17,1.5411149299999352
18,5.840660310102416
2,1, 1, 1, 0,13,15.00,30.00,Tuesday
7,-2.75
8,1819.8523785151663
9,1.0
10,305.94037763660148
11,1.0
12,305.94037763660148
13,1819.8523785151663
14,5.862897281460203
15,10.083733736208253
16,7.406626435303565
17,0.7923480667756735
18,5.797670978853072
2,1, 1, 1, 0,13,30.00,45.00,Tuesday
7,-2.475
8,1658.3119082134397
9,1.0
10,281.0763483922329
11,1.0
12,281.0763483922329
13,1658.3119082134397
14,5.838418679102753
15,9.570992055302371
16,7.110257576583251
17,0.8549703394055541
18,5.742418533869923
2,1, 1, 1, 0,13,45.00,60.00,Tuesday
7,-2.2
8,1500.1495077213409
9,1.0
10,256.7721209415886
11,1.0
12,256.7721209415886
13,1500.1495077213409
14,5.806535414833152
15,8.963872454268568
16,6.871649918853336
17,0.9420250256478084
18,5.695922580516019
2,1, 1, 1, 0,14, 0.00,15.00,Tuesday
7,-1.9250000000000003
8,1223.4754548912934
9,1.0
10,210.73276284570657
11,1.0
12,210.73276284570657
13,1223.4754548912934
14,5.678616282534296
15,7.416195775515608
16,6.247889129740599
17,0.7555637079334474
18,5.6549748235800278
2,1, 1, 1, 0,14,15.00,30.00,Tuesday
7,-1.6500000000000002
8,1083.6066169245144
9,1.0
10,189.38488290342594
11,1.0
12,189.38488290342594
13,1083.6066169245144
14,5.649189191492737
15,7.009814349559608
16,6.003574429463583
17,0.8310995022426369
18,5.619125830020214
2,1, 1, 1, 0,14,30.00,45.00,Tuesday
7,-1.375
8,1033.9849641949475
9,1.0
10,179.3940297802914
11,1.0
12,179.3940297802914
13,1033.9849641949475
14,5.646761255621413
15,7.132022490729774
16,5.954628990871242
17,1.0284253814168097
18,5.5904263323389389
2,1, 1, 1, 0,14,45.00,60.00,Tuesday
7,-1.1
8,983.338804801501
9,1.0
10,169.43349014176136
11,1.0
12,169.43349014176136
13,983.338804801501
14,5.640650093041718
15,7.230251651816874
16,5.901554864264597
17,1.2225674882436124
18,5.568644669291742
2,1, 1, 1, 0,15, 0.00,15.00,Tuesday
7,-1.1
8,1033.916034865693
9,1.0
10,178.15692317953907
11,1.0
12,178.15692317953907
13,1033.916034865693
14,5.696101531198802
15,8.046094344066925
16,6.0784529934738888
17,1.3955012889499586
18,5.556695491235272
2,1, 1, 1, 0,15,15.00,30.00,Tuesday
7,-1.1
8,970.5605862814177
9,1.0
10,166.40516310952945
11,1.0
12,166.40516310952945
13,970.5605862814177
14,5.650752914977087
15,7.683492994247256
16,5.900633187624862
17,1.3112183194077148
18,5.548366381266845
2,1, 1, 1, 0,15,30.00,45.00,Tuesday
7,-1.1
8,816.7254110730805
9,1.0
10,140.8967369711617
11,1.0
12,140.8967369711617
13,816.7254110730805
14,5.543483415120438
15,6.476628311623451
16,5.432782643436326
17,1.0178889014762263
18,5.533758781491576
2,1, 1, 1, 0,15,45.00,60.00,Tuesday
7,-1.1
8,670.7520999739516
9,1.0
10,116.57355796743004
11,1.0
12,116.57355796743004
13,670.7520999739516
14,5.430636347735594
15,5.2630131890947029
16,4.977249039478977
17,0.7273906961461307
18,5.5035287026180239
2,1, 1, 1, 0,16, 0.00,15.00,Tuesday
7,-1.1
8,531.3242103430646
9,1.0
10,93.14939272689483
11,1.0
12,93.14939272689483
13,531.3242103430646
14,5.3341529645299829
15,4.212824810101467
16,4.58538312029691
17,0.5139463273820866
18,5.456238876137456
2,1, 1, 1, 0,16,15.00,30.00,Tuesday
7,-1.1
8,329.1422650881374
9,1.0
10,57.94047897402063
11,1.0
12,57.94047897402063
13,329.1422650881374
14,5.151730710073831
15,2.0855161472485648
16,3.9604276057373228
17,0.09934339403372405
18,5.3849163446325669
2,1, 1, 1, 0,16,30.00,45.00,Tuesday
7,-1.1
8,254.7322056029721
9,1.0
10,45.38251793443488
11,1.0
12,45.38251793443488
13,254.7322056029721
14,5.083435887164721
15,1.4720267791749407
16,3.725643039655438
17,0.004033098868376328
18,5.2994300617624499
2,1, 1, 1, 0,16,45.00,60.00,Tuesday
7,-1.1
8,177.56161520240969
9,1.0
10,32.02625108222755
11,1.0
12,32.02625108222755
13,177.56161520240969
14,4.976942488380423
15,0.6045681166759825
16,3.486608044500656
17,-0.1070150802054286
18,5.2095919023996
2,1, 1, 1, 0,17, 0.00,15.00,Tuesday
7,-1.1
8,97.31263596887948
9,1.0
10,17.762198626050539
11,1.0
12,17.762198626050539
13,97.31263596887948
14,4.842907141271322
15,-0.6522635417129296
16,3.1730231168687625
17,-0.3349262331598766
18,5.117694927197456
2,1, 1, 1, 0,17,15.00,30.00,Tuesday
7,-1.1
8,0.0
9,0.0
10,0.0
11,0.0
12,0.0
13,0.0
14,4.658605233448803
15,-2.492109124849605
16,2.7602532769928986
17,-0.697201593836553
18,5.014524547474627
2,1, 1, 1, 0,17,30.00,45.00,Tuesday
7,-1.1
8,0.0
9,0.0
10,0.0
11,0.0
12,0.0
13,0.0
14,4.605754200515462
15,-2.630259755076808
16,2.6912436850639098
17,-0.7017453075808362
18,4.914863407398264
2,1, 1, 1, 0,17,45.00,60.00,Tuesday
7,-1.1
8,0.0
9,0.0
10,0.0
11,0.0
12,0.0
13,0.0
14,4.538066891960054
15,-2.8256598642345787
16,2.658953928191181
17,-0.697218370265773
18,4.831858925984087
2,1, 1, 1, 0,18, 0.00,15.00,Tuesday
7,-1.25
8,0.0
9,0.0
10,0.0
11,0.0
12,0.0
13,0.0
14,4.48194222200677
15,-2.9729202923718116
16,2.5625503127472486
17,-0.8160607419823123
18,4.765948270551759
2,1, 1, 1, 0,18,15.00,30.00,Tuesday
7,-1.4
8,0.0
9,0.0
10,0.0
11,0.0
12,0.0
13,0.0
14,4.4310083191042299
15,-3.1253436806511445
16,2.4825319674046115
17,-0.9385239786089414
18,4.712039884715418
2,1, 1, 1, 0,18,30.00,45.00,Tuesday
7,-1.5499999999999999
8,0.0
9,0.0
10,0.0
11,0.0
12,0.0
13,0.0
14,4.38425568808708
15,-3.277233803614559
16,2.407011298362704
17,-1.0595567452782007
18,4.6649258292667039
2,1, 1, 1, 0,18,45.00,60.00,Tuesday
7,-1.7
8,0.0
9,0.0
10,0.0
11,0.0
12,0.0
13,0.0
14,4.3395968770601629
15,-3.429298143063953
16,2.3360294414628699
17,-1.1740523652089224
18,4.621218217436113
2,1, 1, 1, 0,19, 0.00,15.00,Tuesday
7,-1.825
8,0.0
9,0.0
10,0.0
11,0.0
12,0.0
13,0.0
14,4.320830957204435
15,-3.2753268764388516
16,2.2499133199779637
17,-1.3212760797355259
18,4.5825794163747199
2,1, 1, 1, 0,19,15.00,30.00,Tuesday
7,-1.9500000000000002
8,0.0
9,0.0
10,0.0
11,0.0
12,0.0
13,0.0
14,4.3011662804887369
15,-3.203517311162174
16,2.17935243032224
17,-1.4565688030999696
18,4.5507123826761399
2,1, 1, 1, 0,19,30.00,45.00,Tuesday
7,-2.075
8,0.0
9,0.0
10,0.0
11,0.0
12,0.0
13,0.0
14,4.276588814381088
15,-3.2759810847940367
16,2.1250358903383814
17,-1.5640020888235427
18,4.524290580163144
2,1, 1, 1, 0,19,45.00,60.00,Tuesday
7,-2.2
8,0.0
9,0.0
10,0.0
11,0.0
12,0.0
13,0.0
14,4.254902217993294
15,-3.249303392680388
16,2.058106186475868
17,-1.6959973890967604
18,4.500264468525043
2,1, 1, 1, 0,20, 0.00,15.00,Tuesday
7,-1.9250000000000003
8,0.0
9,0.0
10,0.0
11,0.0
12,0.0
13,0.0
14,4.250646510427226
15,-2.9470416310720606
16,2.1337689280702536
17,-1.5173990686214439
18,4.479586900820255
2,1, 1, 1, 0,20,15.00,30.00,Tuesday
7,-1.6500000000000002
8,0.0
9,0.0
10,0.0
11,0.0
12,0.0
13,0.0
14,4.246290253833362
15,-2.647891319502314
16,2.196806018223185
17,-1.3091552506069207
18,4.4627304717792379
2,1, 1, 1, 0,20,30.00,45.00,Tuesday
7,-1.375
8,0.0
9,0.0
10,0.0
11,0.0
12,0.0
13,0.0
14,4.243902565687103
15,-2.3500459526817778
16,2.2659920325594387
17,-1.1056753885658282
18,4.449148881246429
2,1, 1, 1, 0,20,45.00,60.00,Tuesday
7,-1.1
8,0.0
9,0.0
10,0.0
11,0.0
12,0.0
13,0.0
14,4.243248348475555
15,-2.0535083144882138
16,2.337903843101799
17,-0.8997713451489062
18,4.438013176286892
2,1, 1, 1, 0,21, 0.00,15.00,Tuesday
7,-1.25
8,0.0
9,0.0
10,0.0
11,0.0
12,0.0
13,0.0
14,4.1987630306527399
15,-2.3392869116708638
16,2.292281635986228
17,-0.9752105404129452
18,4.422304326094391
2,1, 1, 1, 0,21,15.00,30.00,Tuesday
7,-1.4
8,0.0
9,0.0
10,0.0
11,0.0
12,0.0
13,0.0
14,4.155479345605317
15,-2.558293472037247
16,2.235433691549872
17,-1.0692004568437029
18,4.397109042910252
2,1, 1, 1, 0,21,30.00,45.00,Tuesday
7,-1.5499999999999999
8,0.0
9,0.0
10,0.0
11,0.0
12,0.0
13,0.0
14,4.098507267707865
15,-2.9087476078825467
16,2.186916642485812
17,-1.141061470799798
18,4.361498386683445
2,1, 1, 1, 0,21,45.00,60.00,Tuesday
7,-1.7
8,0.0
9,0.0
10,0.0
11,0.0
12,0.0
13,0.0
14,4.036389894843491
15,-3.3676576064088898
16,2.1424892266675217
17,-1.1892394033544634
18,4.317742166804171
2,1, 1, 1, 0,22, 0.00,15.00,Tuesday
7,-1.5499999999999999
8,0.0
9,0.0
10,0.0
11,0.0
12,0.0
13,0.0
14,4.045863305340433
15,-2.8718678933994874
16,2.130304061360164
17,-1.1691009580974879
18,4.279405326947964
2,1, 1, 1, 0,22,15.00,30.00,Tuesday
7,-1.4
8,0.0
9,0.0
10,0.0
11,0.0
12,0.0
13,0.0
14,4.044670036236254
15,-2.5362240120529524
16,2.143765213541087
17,-1.0984142537412254
18,4.2537780871673809
2,1, 1, 1, 0,22,30.00,45.00,Tuesday
7,-1.25
8,0.0
9,0.0
10,0.0
11,0.0
12,0.0
13,0.0
14,4.042302018118707
15,-2.3136417981081136
16,2.172653897022201
17,-1.0074759652909507
18,4.238908748512462
2,1, 1, 1, 0,22,45.00,60.00,Tuesday
7,-1.1
8,0.0
9,0.0
10,0.0
11,0.0
12,0.0
13,0.0
14,4.043792033342551
15,-2.0266395880462606
16,2.200846734466836
17,-0.9205742242901351
18,4.229753973640415
2,1, 1, 1, 0,23, 0.00,15.00,Tuesday
7,-1.25
8,0.0
9,0.0
10,0.0
11,0.0
12,0.0
13,0.0
14,3.998376320003535
15,-2.3302066777393617
16,2.0840234677174296
17,-1.1746247722319368
18,4.215583056430685
2,1, 1, 1, 0,23,15.00,30.00,Tuesday
7,-1.4
8,0.0
9,0.0
10,0.0
11,0.0
12,0.0
13,0.0
14,3.9556221974915415
15,-2.634799579143562
16,1.9584278990933513
17,-1.4470518713205252
18,4.19091803619566
2,1, 1, 1, 0,23,30.00,45.00,Tuesday
7,-1.5499999999999999
8,0.0
9,0.0
10,0.0
11,0.0
12,0.0
13,0.0
14,3.9083270499716264
15,-2.9400491578823697
16,1.8312356898495069
17,-1.7213853343374695
18,4.15670212368749
2,1, 1, 1, 0,23,45.00,60.00,Tuesday
7,-1.7
8,0.0
9,0.0
10,0.0
11,0.0
12,0.0
13,0.0
14,3.8570474794903117
15,-3.2456447565409909
16,1.700214973619154
17,-1.9978982492925753
18,4.115915365096195
2,1, 1, 1, 0,24, 0.00,15.00,Tuesday
7,-1.7
8,0.0
9,0.0
10,0.0
11,0.0
12,0.0
13,0.0
14,3.8236864647284189
15,-3.299570920756219
16,1.6526327977654774
17,-2.0604370254492325
18,4.074599205045099
2,1, 1, 1, 0,24,15.00,30.00,Tuesday
7,-1.7
8,0.0
9,0.0
10,0.0
11,0.0
12,0.0
13,0.0
14,3.786153341606085
15,-3.354220977461975
16,1.6079908713554688
17,-2.119694500236733
18,4.035821656991885
2,1, 1, 1, 0,24,30.00,45.00,Tuesday
7,-1.7
8,0.0
9,0.0
10,0.0
11,0.0
12,0.0
13,0.0
14,3.7517306647397938
15,-3.4086762395957215
16,1.562633811577257
17,-2.178999894667186
18,3.9997248816315458
2,1, 1, 1, 0,24,45.00,60.00,Tuesday
7,-1.7
8,0.0
9,0.0
10,0.0
11,0.0
12,0.0
13,0.0
14,3.7159875652654845
15,-3.463221123434547
16,1.518628438021267
17,-2.237698829934402
18,3.965182934833078
End of Data
 Number of Records Written=        1152
