Program Version,EnergyPlus, Version 9.5.0-de239b2e5f, YMD=2022.11.22 15:34
1,5,Environment Title[],Latitude[deg],Longitude[deg],Time Zone[],Elevation[m]
2,8,Day of Simulation[],Month[],Day of Month[],DST Indicator[1=yes 0=no],Hour[],StartMinute[],EndMinute[],DayType
3,5,Cumulative Day of Simulation[],Month[],Day of Month[],DST Indicator[1=yes 0=no],DayType  ! When Daily Report Variables Requested
4,2,Cumulative Days of Simulation[],Month[]  ! When Monthly Report Variables Requested
5,1,Cumulative Days of Simulation[] ! When Run Period Report Variables Requested
6,1,Calendar Year of Simulation[] ! When Annual Report Variables Requested
7,1,Environment,Site Outdoor Air Drybulb Temperature [C] !TimeStep
8,1,ZONE ONE,Zone Windows Total Transmitted Solar Radiation Rate [W] !TimeStep
9,1,ZN001:WALL001,Surface Outside Face Sunlit Fraction [] !TimeStep
10,1,ZN001:WALL001,Surface Outside Face Incident Solar Radiation Rate per Area [W/m2] !TimeStep
11,1,ZN001:WALL001:WIN001,Surface Outside Face Sunlit Fraction [] !TimeStep
12,1,ZN001:WALL001:WIN001,Surface Outside Face Incident Solar Radiation Rate per Area [W/m2] !TimeStep
13,1,ZN001:WALL001:WIN001,Surface Window Transmitted Solar Radiation Rate [W] !TimeStep
14,1,ZN001:WALL001,Surface Inside Face Temperature [C] !TimeStep
15,1,ZN001:WALL001,Surface Outside Face Temperature [C] !TimeStep
16,1,ZN001:WALL001:WIN001,Surface Inside Face Temperature [C] !TimeStep
17,1,ZN001:WALL001:WIN001,Surface Outside Face Temperature [C] !TimeStep
18,1,ZONE ONE,Zone Mean Air Temperature [C] !TimeStep
End of Data Dictionary
1,RUN PERIOD 1,  41.98, -87.92,  -6.00, 201.00
2,1, 1, 1, 0, 1, 0.00,15.00,Tuesday
7,-4.324999999999999
8,0.0
9,0.0
10,0.0
11,0.0
12,0.0
13,0.0
14,7.879415255215291
15,-5.86053742601972
16,4.024826509619743
17,-3.129660110084558
18,8.368702130642318
2,1, 1, 1, 0, 1,15.00,30.00,Tuesday
7,-6.949999999999999
8,0.0
9,0.0
10,0.0
11,0.0
12,0.0
13,0.0
14,7.686852525354241
15,-8.327726381766576
16,3.2345150086579226
17,-5.0707476111711
18,8.25438922409333
2,1, 1, 1, 0, 1,30.00,45.00,Tuesday
7,-9.575
8,0.0
9,0.0
10,0.0
11,0.0
12,0.0
13,0.0
14,7.472049695312102
15,-10.802950445219157
16,2.436653072628417
17,-7.017767738322789
18,8.105942820528729
2,1, 1, 1, 0, 1,45.00,60.00,Tuesday
7,-12.2
8,0.0
9,0.0
10,0.0
11,0.0
12,0.0
13,0.0
14,7.2399926770316489
15,-13.28482367029474
16,1.6234603944132005
17,-8.97291333220494
18,7.934432394267877
2,1, 1, 1, 0, 2, 0.00,15.00,Tuesday
7,-12.075
8,0.0
9,0.0
10,0.0
11,0.0
12,0.0
13,0.0
14,7.157324960187553
15,-13.08568524882837
16,1.5788040165995199
17,-8.830143802817702
18,7.781206804518323
2,1, 1, 1, 0, 2,15.00,30.00,Tuesday
7,-11.95
8,0.0
9,0.0
10,0.0
11,0.0
12,0.0
13,0.0
14,7.062152499522551
15,-12.908863093445794
16,1.557363676449313
17,-8.718469166170963
18,7.6637840566077959
2,1, 1, 1, 0, 2,30.00,45.00,Tuesday
7,-11.825
8,0.0
9,0.0
10,0.0
11,0.0
12,0.0
13,0.0
14,6.985864635049256
15,-12.730830563491385
16,1.5343592569273597
17,-8.585775300891442
18,7.574992278302141
2,1, 1, 1, 0, 2,45.00,60.00,Tuesday
7,-11.7
8,0.0
9,0.0
10,0.0
11,0.0
12,0.0
13,0.0
14,6.921698894928484
15,-12.552896338035592
16,1.53246927340831
17,-8.467944301920966
18,7.50237721003209
2,1, 1, 1, 0, 3, 0.00,15.00,Tuesday
7,-11.549999999999999
8,0.0
9,0.0
10,0.0
11,0.0
12,0.0
13,0.0
14,6.859574186022276
15,-12.425827859245822
16,1.538332197346449
17,-8.30893469681132
18,7.436374761539671
2,1, 1, 1, 0, 3,15.00,30.00,Tuesday
7,-11.399999999999999
8,0.0
9,0.0
10,0.0
11,0.0
12,0.0
13,0.0
14,6.800791144615131
15,-12.300089346653503
16,1.5539317248766338
17,-8.16869907581787
18,7.37263493546774
2,1, 1, 1, 0, 3,30.00,45.00,Tuesday
7,-11.25
8,0.0
9,0.0
10,0.0
11,0.0
12,0.0
13,0.0
14,6.742825985489816
15,-12.175818743687263
16,1.562574533981433
17,-8.008445988172923
18,7.309881048613324
2,1, 1, 1, 0, 3,45.00,60.00,Tuesday
7,-11.1
8,0.0
9,0.0
10,0.0
11,0.0
12,0.0
13,0.0
14,6.685582169594229
15,-12.05307643123203
16,1.5804575939347388
17,-7.867538748090283
18,7.2481046590297419
2,1, 1, 1, 0, 4, 0.00,15.00,Tuesday
7,-11.1
8,0.0
9,0.0
10,0.0
11,0.0
12,0.0
13,0.0
14,6.624073110054322
15,-12.026279355051069
16,1.5065959463627792
17,-7.921011435737341
18,7.185803383203587
2,1, 1, 1, 0, 4,15.00,30.00,Tuesday
7,-11.1
8,0.0
9,0.0
10,0.0
11,0.0
12,0.0
13,0.0
14,6.562927978461368
15,-12.000526041176647
16,1.4414680165571099
17,-7.9807212586478049
18,7.122479192016588
2,1, 1, 1, 0, 4,30.00,45.00,Tuesday
7,-11.1
8,0.0
9,0.0
10,0.0
11,0.0
12,0.0
13,0.0
14,6.501365278160831
15,-11.976233680112957
16,1.3775681224577739
17,-8.040234101750969
18,7.058452307103317
2,1, 1, 1, 0, 4,45.00,60.00,Tuesday
7,-11.1
8,0.0
9,0.0
10,0.0
11,0.0
12,0.0
13,0.0
14,6.439596809695344
15,-11.953267886228755
16,1.3140367156811408
17,-8.098615963077805
18,6.9941674627657159
2,1, 1, 1, 0, 5, 0.00,15.00,Tuesday
7,-10.975
8,0.0
9,0.0
10,0.0
11,0.0
12,0.0
13,0.0
14,6.383685792963084
15,-11.831549027238142
16,1.3081245601026126
17,-8.026156687513094
18,6.931300083000524
2,1, 1, 1, 0, 5,15.00,30.00,Tuesday
7,-10.85
8,0.0
9,0.0
10,0.0
11,0.0
12,0.0
13,0.0
14,6.328112052723716
15,-11.709881005059732
16,1.2985201147380395
17,-7.945738189121016
18,6.870449436079139
2,1, 1, 1, 0, 5,30.00,45.00,Tuesday
7,-10.725
8,0.0
9,0.0
10,0.0
11,0.0
12,0.0
13,0.0
14,6.273790958181031
15,-11.588184715195525
16,1.2890284662519776
17,-7.864153115086083
18,6.811273978203626
2,1, 1, 1, 0, 5,45.00,60.00,Tuesday
7,-10.6
8,0.0
9,0.0
10,0.0
11,0.0
12,0.0
13,0.0
14,6.220489651819686
15,-11.46649665666193
16,1.280392257252629
17,-7.782158958139348
18,6.753266030382074
2,1, 1, 1, 0, 6, 0.00,15.00,Tuesday
7,-10.6
8,0.0
9,0.0
10,0.0
11,0.0
12,0.0
13,0.0
14,6.160279598480318
15,-11.467656841574339
16,1.2327924579474257
17,-7.789777753629096
18,6.694584457839154
2,1, 1, 1, 0, 6,15.00,30.00,Tuesday
7,-10.6
8,0.0
9,0.0
10,0.0
11,0.0
12,0.0
13,0.0
14,6.100729293027999
15,-11.468775427522966
16,1.1870976067932589
17,-7.803125071238583
18,6.6344734014027699
2,1, 1, 1, 0, 6,30.00,45.00,Tuesday
7,-10.6
8,0.0
9,0.0
10,0.0
11,0.0
12,0.0
13,0.0
14,6.040619201821145
15,-11.469937243302349
16,1.141718030106631
17,-7.81712497651165
18,6.573283533803603
2,1, 1, 1, 0, 6,45.00,60.00,Tuesday
7,-10.6
8,0.0
9,0.0
10,0.0
11,0.0
12,0.0
13,0.0
14,5.980212073195454
15,-11.47109552961908
16,1.0960267280717063
17,-7.831333983052673
18,6.51159993134505
2,1, 1, 1, 0, 7, 0.00,15.00,Tuesday
7,-10.6
8,0.0
9,0.0
10,0.0
11,0.0
12,0.0
13,0.0
14,5.921603524647477
15,-11.448897145679214
16,1.03382507308811
17,-7.882458888541237
18,6.44996541243662
2,1, 1, 1, 0, 7,15.00,30.00,Tuesday
7,-10.6
8,0.0
9,0.0
10,0.0
11,0.0
12,0.0
13,0.0
14,5.8628833238634459
15,-11.427854876753287
16,0.9744500567180694
17,-7.934165367128003
18,6.388691454564403
2,1, 1, 1, 0, 7,30.00,45.00,Tuesday
7,-10.6
8,0.0
9,0.0
10,0.0
11,0.0
12,0.0
13,0.0
14,5.804419623121065
15,-11.40788659072296
16,0.9158681951020071
17,-7.984867767375192
18,6.327806014957771
2,1, 1, 1, 0, 7,45.00,60.00,Tuesday
7,-10.6
8,0.0
9,0.0
10,0.0
11,0.0
12,0.0
13,0.0
14,5.746238504808767
15,-11.388927380121175
16,0.8579980817903561
17,-8.034281026276006
18,6.267251514803343
2,1, 1, 1, 0, 8, 0.00,15.00,Tuesday
7,-10.45
8,0.0
9,0.0
10,0.0
11,0.0
12,0.0
13,0.0
14,5.6879225990658039
15,-11.339165688769333
16,0.8486179797785667
17,-7.97503996030116
18,6.207110347792808
2,1, 1, 1, 0, 8,15.00,30.00,Tuesday
7,-10.3
8,215.5879980222353
9,1.0
10,22.819555959623899
11,1.0
12,22.819555959623899
13,215.5879980222353
14,5.762377631067643
15,-9.665039022998203
16,1.1280822540834379
17,-7.6480371108066269
18,6.1682620459125438
2,1, 1, 1, 0, 8,30.00,45.00,Tuesday
7,-10.15
8,1058.5392312119832
9,1.0
10,109.75755355442667
11,1.0
12,109.75755355442667
13,1058.5392312119832
14,6.2014526095993569
15,-3.289037430595938
16,2.2876061868979606
17,-6.586356419507183
18,6.209013051528026
2,1, 1, 1, 0, 8,45.00,60.00,Tuesday
7,-10.0
8,1924.8399544048012
9,1.0
10,195.8764694434918
11,1.0
12,195.8764694434918
13,1924.8399544048012
14,6.793225841005328
15,3.2133080403896279
16,3.538278294855445
17,-5.50907964769425
18,6.335589030030012
2,1, 1, 1, 0, 9, 0.00,15.00,Tuesday
7,-9.725
8,2788.1568045040946
9,1.0
10,278.97248314719988
11,1.0
12,278.97248314719988
13,2788.1568045040946
14,7.2229122534481668
15,8.35947503684836
16,4.765104541361097
17,-4.570533544733621
18,6.525246703833227
2,1, 1, 1, 0, 9,15.00,30.00,Tuesday
7,-9.45
8,3698.191694964431
9,1.0
10,364.91995730569456
11,1.0
12,364.91995730569456
13,3698.191694964431
14,7.715779917004101
15,13.442018341340305
16,6.081008146111117
17,-3.6099230258095647
18,6.768588635104036
2,1, 1, 1, 0, 9,30.00,45.00,Tuesday
7,-9.175
8,4300.2673206835229
9,1.0
10,420.35879993239237
11,1.0
12,420.35879993239237
13,4300.2673206835229
14,8.075575112864069
15,16.19804199515224
16,7.032214438004132
17,-2.984397447387664
18,7.038431230778846
2,1, 1, 1, 0, 9,45.00,60.00,Tuesday
7,-8.9
8,4925.271017558337
9,1.0
10,478.00138373643099
11,1.0
12,478.00138373643099
13,4925.271017558337
14,8.493246651898922
15,19.192660449389739
16,7.963310270509282
17,-2.358819427690719
18,7.321446043270959
2,1, 1, 1, 0,10, 0.00,15.00,Tuesday
7,-8.350000000000002
8,5563.47927965646
9,1.0
10,536.9185644770597
11,1.0
12,536.9185644770597
13,5563.47927965646
14,8.86027903963884
15,20.30731266850797
16,8.893132726712338
17,-1.7367876053220926
18,7.6184032202183789
2,1, 1, 1, 0,10,15.00,30.00,Tuesday
7,-7.800000000000001
8,6223.735720388039
9,1.0
10,598.0969199229219
11,1.0
12,598.0969199229219
13,6223.735720388039
14,9.259119564929537
15,21.558110409880468
16,9.836098139389947
17,-1.1122604967924872
18,7.758604457948101
2,1, 1, 1, 0,10,30.00,45.00,Tuesday
7,-7.25
8,6656.871608685562
9,1.0
10,637.6133352894237
11,1.0
12,637.6133352894237
13,6656.871608685562
14,9.53229769582218
15,21.614517040314593
16,10.504789543501943
17,-0.6828289536545071
18,8.02954743854349
2,1, 1, 1, 0,10,45.00,60.00,Tuesday
7,-6.7
8,7083.627635407371
9,1.0
10,676.6412284283772
11,1.0
12,676.6412284283772
13,7083.627635407371
14,9.79754908707753
15,21.771881030844275
16,11.121518703520565
17,-0.25941012397697707
18,8.230954799706982
2,1, 1, 1, 0,11, 0.00,15.00,Tuesday
7,-6.275
8,7502.619881932496
9,1.0
10,715.0112779846514
11,1.0
12,715.0112779846514
13,7502.619881932496
14,10.21778034286087
15,23.871574832034616
16,11.847662168855323
17,0.40687361282107306
18,8.694673396942243
2,1, 1, 1, 0,11,15.00,30.00,Tuesday
7,-5.85
8,7911.749570952164
9,1.0
10,752.5077794605232
11,1.0
12,752.5077794605232
13,7911.749570952164
14,10.690995028246132
15,25.80892652775573
16,12.61213692760964
17,1.0833499502521136
18,9.128005452641994
2,1, 1, 1, 0,11,30.00,45.00,Tuesday
7,-5.425
8,7790.156876744835
9,1.0
10,742.5988714321785
11,1.0
12,742.5988714321785
13,7790.156876744835
14,10.98191317424817
15,25.661020381847334
16,12.872722769180087
17,1.4048592736727983
18,9.533026743933754
2,1, 1, 1, 0,11,45.00,60.00,Tuesday
7,-5.0
8,7616.415097398768
9,1.0
10,727.8169025450712
11,1.0
12,727.8169025450712
13,7616.415097398768
14,11.260215769746877
15,25.432956727925995
16,13.043022356643064
17,1.6788011026640675
18,9.892702321140743
2,1, 1, 1, 0,12, 0.00,15.00,Tuesday
7,-4.575
8,7317.63187899619
9,1.0
10,700.3759009170325
11,1.0
12,700.3759009170325
13,7317.63187899619
14,11.460883209005904
15,24.691140481477775
16,13.075002157488712
17,1.893895533803743
18,10.202684566371289
2,1, 1, 1, 0,12,15.00,30.00,Tuesday
7,-4.15
8,7096.045470548525
9,1.0
10,681.6705029034473
11,1.0
12,681.6705029034473
13,7096.045470548525
14,11.681703872490477
15,24.36151498818424
16,13.17661456097278
17,2.173653724223925
18,10.475556539856504
2,1, 1, 1, 0,12,30.00,45.00,Tuesday
7,-3.7249999999999998
8,6229.736928425406
9,1.0
10,602.01865277251
11,1.0
12,602.01865277251
13,6229.736928425406
14,11.595313628743254
15,21.332849132546906
16,12.595704974471574
17,1.9946055533546315
18,10.686291627854504
2,1, 1, 1, 0,12,45.00,60.00,Tuesday
7,-3.3
8,5087.904404183855
9,1.0
10,493.55004396206007
11,1.0
12,493.55004396206007
13,5087.904404183855
14,11.401900458143043
15,17.155821575300313
16,11.57224052540721
17,1.5603515097607784
18,10.802488899833089
2,1, 1, 1, 0,13, 0.00,15.00,Tuesday
7,-3.0249999999999996
8,4201.063393949559
9,1.0
10,412.335026418112
11,1.0
12,412.335026418112
13,4201.063393949559
14,11.269314668210276
15,14.31259530478284
16,10.73107517105575
17,1.2690109995477315
18,10.843852070615766
2,1, 1, 1, 0,13,15.00,30.00,Tuesday
7,-2.75
8,3076.892122430221
9,1.0
10,305.94037763660148
11,1.0
12,305.94037763660148
13,3076.892122430221
14,10.938769435206219
15,10.14036774450676
16,9.595862166965617
17,0.7730730187136032
18,10.819502296984683
2,1, 1, 1, 0,13,30.00,45.00,Tuesday
7,-2.475
8,2809.0935899127655
9,1.0
10,281.0763483922329
11,1.0
12,281.0763483922329
13,2809.0935899127655
14,10.917442603908768
15,9.629434235699993
16,9.374615470895492
17,0.8876987728529002
18,10.772122479797039
2,1, 1, 1, 0,13,45.00,60.00,Tuesday
7,-2.2
8,2546.8736709552365
9,1.0
10,256.7721209415886
11,1.0
12,256.7721209415886
13,2546.8736709552365
14,10.876322269658813
15,9.022785107702774
16,9.229491428078746
17,1.0363587132599719
18,10.731258586431699
2,1, 1, 1, 0,14, 0.00,15.00,Tuesday
7,-1.9250000000000003
8,2080.536760270814
9,1.0
10,210.73276284570657
11,1.0
12,210.73276284570657
13,2080.536760270814
14,10.71659747122007
15,7.47686173017059
16,8.811915993026503
17,0.9863910825381481
18,10.691006112154384
2,1, 1, 1, 0,14,15.00,30.00,Tuesday
7,-1.6500000000000002
8,1848.1882299855229
9,1.0
10,189.38488290342594
11,1.0
12,189.38488290342594
13,1848.1882299855229
14,10.67488068109897
15,7.072290951412479
16,8.646418638328783
17,1.1232537506284075
18,10.652331028347846
2,1, 1, 1, 0,14,30.00,45.00,Tuesday
7,-1.375
8,1762.648528253172
9,1.0
10,179.3940297802914
11,1.0
12,179.3940297802914
13,1762.648528253172
14,10.659495951992217
15,7.197351155775311
16,8.644144887854964
17,1.3620882481665718
18,10.618461477089399
2,1, 1, 1, 0,14,45.00,60.00,Tuesday
7,-1.1
8,1676.1315823352277
9,1.0
10,169.43349014176136
11,1.0
12,169.43349014176136
13,1676.1315823352277
14,10.640180443155128
15,7.297921530901532
16,8.635233334815667
17,1.5982082009541046
18,10.589328674533239
2,1, 1, 1, 0,15, 0.00,15.00,Tuesday
7,-1.1
8,1764.2336451764168
9,1.0
10,178.15692317953907
11,1.0
12,178.15692317953907
13,1764.2336451764168
14,10.705630786678448
15,8.116817420693753
16,8.754079023646569
17,1.744234383645619
18,10.569591563454129
2,1, 1, 1, 0,15,15.00,30.00,Tuesday
7,-1.1
8,1657.44905719483
9,1.0
10,166.40516310952945
11,1.0
12,166.40516310952945
13,1657.44905719483
14,10.645859759648016
15,7.755591471611669
16,8.64857667339652
17,1.7128562749097683
18,10.55207816553315
2,1, 1, 1, 0,15,30.00,45.00,Tuesday
7,-1.1
8,1397.5312645024297
9,1.0
10,140.8967369711617
11,1.0
12,140.8967369711617
13,1397.5312645024297
14,10.514662700634084
15,6.55075495244198
16,8.335199045702894
17,1.5290812061855377
18,10.525281414574853
2,1, 1, 1, 0,15,45.00,60.00,Tuesday
7,-1.1
8,1150.0543343484979
9,1.0
10,116.57355796743004
11,1.0
12,116.57355796743004
13,1150.0543343484979
14,10.368976757492849
15,5.339675182869658
16,8.016769604080764
17,1.3389028386827704
18,10.483303030420237
2,1, 1, 1, 0,16, 0.00,15.00,Tuesday
7,-1.1
8,912.7487358563033
9,1.0
10,93.14939272689483
11,1.0
12,93.14939272689483
13,912.7487358563033
14,10.253555734601877
15,4.2969718737486419
16,7.742484446647097
17,1.2388911557826532
18,10.423616368974887
2,1, 1, 1, 0,16,15.00,30.00,Tuesday
7,-1.1
8,566.636069103818
9,1.0
10,57.94047897402063
11,1.0
12,57.94047897402063
13,566.636069103818
14,10.035244162705589
15,2.1761539146347239
16,7.307854533885688
17,1.003955551601905
18,10.337976519414792
2,1, 1, 1, 0,16,30.00,45.00,Tuesday
7,-1.1
8,439.3280485110057
9,1.0
10,45.38251793443488
11,1.0
12,45.38251793443488
13,439.3280485110057
14,9.950776366444912
15,1.571283519179817
16,7.129291627702116
17,0.9995648946567144
18,10.239893842633203
2,1, 1, 1, 0,16,45.00,60.00,Tuesday
7,-1.1
8,306.6800834820858
9,1.0
10,32.02625108222755
11,1.0
12,32.02625108222755
13,306.6800834820858
14,9.823465771947819
15,0.7135569237471927
16,6.966007449839367
17,0.9954790647409482
18,10.142368399573276
2,1, 1, 1, 0,17, 0.00,15.00,Tuesday
7,-1.1
8,168.21359625367695
9,1.0
10,17.762198626050539
11,1.0
12,17.762198626050539
13,168.21359625367695
14,9.671282364329077
15,-0.5299329265004578
16,6.741059394249419
17,0.8878482491089699
18,10.04388700430355
2,1, 1, 1, 0,17,15.00,30.00,Tuesday
7,-1.1
8,0.0
9,0.0
10,0.0
11,0.0
12,0.0
13,0.0
14,9.466780311193285
15,-2.3636396563274375
16,6.418539931556381
17,0.6286655804582324
18,9.930884826922844
2,1, 1, 1, 0,17,30.00,45.00,Tuesday
7,-1.1
8,0.0
9,0.0
10,0.0
11,0.0
12,0.0
13,0.0
14,9.403105912163742
15,-2.49567944312349
16,6.361236394627326
17,0.6869433473447089
18,9.820156579312182
2,1, 1, 1, 0,17,45.00,60.00,Tuesday
7,-1.1
8,0.0
9,0.0
10,0.0
11,0.0
12,0.0
13,0.0
14,9.322061045961162
15,-2.6803292989170628
16,6.336763865745297
17,0.7575465055373911
18,9.726802886223626
2,1, 1, 1, 0,18, 0.00,15.00,Tuesday
7,-1.25
8,0.0
9,0.0
10,0.0
11,0.0
12,0.0
13,0.0
14,9.252315412444043
15,-2.829039381416012
16,6.2291165442225069
17,0.6241378324149309
18,9.650669969614873
2,1, 1, 1, 0,18,15.00,30.00,Tuesday
7,-1.4
8,0.0
9,0.0
10,0.0
11,0.0
12,0.0
13,0.0
14,9.188165944547624
15,-2.981592854371553
16,6.138863353036072
17,0.49704261402507657
18,9.585736906385
2,1, 1, 1, 0,18,30.00,45.00,Tuesday
7,-1.5499999999999999
8,0.0
9,0.0
10,0.0
11,0.0
12,0.0
13,0.0
14,9.128032054228287
15,-3.1337913791984266
16,6.053213559099731
17,0.370815126063917
18,9.526436053421808
2,1, 1, 1, 0,18,45.00,60.00,Tuesday
7,-1.7
8,0.0
9,0.0
10,0.0
11,0.0
12,0.0
13,0.0
14,9.069633430139602
15,-3.286162143745286
16,5.970140505216136
17,0.245363324665675
18,9.469549122087683
2,1, 1, 1, 0,19, 0.00,15.00,Tuesday
7,-1.825
8,0.0
9,0.0
10,0.0
11,0.0
12,0.0
13,0.0
14,9.033425158974602
15,-3.1488833131203917
16,5.842448034041809
17,0.0161628311383879
18,9.416518730013463
2,1, 1, 1, 0,19,15.00,30.00,Tuesday
7,-1.9500000000000002
8,0.0
9,0.0
10,0.0
11,0.0
12,0.0
13,0.0
14,8.99662793835324
15,-3.0916970827457188
16,5.731924411589944
17,-0.20148257450506436
18,9.369147026210259
2,1, 1, 1, 0,19,30.00,45.00,Tuesday
7,-2.075
8,0.0
9,0.0
10,0.0
11,0.0
12,0.0
13,0.0
14,8.955645799086775
15,-3.1682133231863558
16,5.661453002278336
17,-0.33553062006365055
18,9.326636503020453
2,1, 1, 1, 0,19,45.00,60.00,Tuesday
7,-2.2
8,0.0
9,0.0
10,0.0
11,0.0
12,0.0
13,0.0
14,8.91682790661684
15,-3.154387027373026
16,5.5538159332161289
17,-0.5434731716835586
18,9.285888980332285
2,1, 1, 1, 0,20, 0.00,15.00,Tuesday
7,-1.9250000000000003
8,0.0
9,0.0
10,0.0
11,0.0
12,0.0
13,0.0
14,8.895686899787185
15,-2.855343092790368
16,5.61112341669849
17,-0.3858542133935998
18,9.24854219829473
2,1, 1, 1, 0,20,15.00,30.00,Tuesday
7,-1.6500000000000002
8,0.0
9,0.0
10,0.0
11,0.0
12,0.0
13,0.0
14,8.873969204454085
15,-2.559108773345422
16,5.653076157727355
17,-0.19848066481864636
18,9.215291138259632
2,1, 1, 1, 0,20,30.00,45.00,Tuesday
7,-1.375
8,0.0
9,0.0
10,0.0
11,0.0
12,0.0
13,0.0
14,8.854655248418095
15,-2.2640121011102045
16,5.705777104048764
17,-0.02532642522766082
18,9.185546857274233
2,1, 1, 1, 0,20,45.00,60.00,Tuesday
7,-1.1
8,0.0
9,0.0
10,0.0
11,0.0
12,0.0
13,0.0
14,8.837064311595029
15,-1.9700904863683003
16,5.7514690770445899
17,0.17008903472520843
18,9.158215646204296
2,1, 1, 1, 0,21, 0.00,15.00,Tuesday
7,-1.25
8,0.0
9,0.0
10,0.0
11,0.0
12,0.0
13,0.0
14,8.780519989173543
15,-2.242838351094167
16,5.732285023472173
17,0.16815674441141938
18,9.126508506166987
2,1, 1, 1, 0,21,15.00,30.00,Tuesday
7,-1.4
8,0.0
9,0.0
10,0.0
11,0.0
12,0.0
13,0.0
14,8.724632996335784
15,-2.4549328050280767
16,5.677455218088198
17,0.11552691112865432
18,9.085554411043314
2,1, 1, 1, 0,21,30.00,45.00,Tuesday
7,-1.5499999999999999
8,0.0
9,0.0
10,0.0
11,0.0
12,0.0
13,0.0
14,8.656387173170347
15,-2.788070181168314
16,5.659288210416321
17,0.12699017905538313
18,9.035089243891557
2,1, 1, 1, 0,21,45.00,60.00,Tuesday
7,-1.7
8,0.0
9,0.0
10,0.0
11,0.0
12,0.0
13,0.0
14,8.582928567609465
15,-3.227044204773724
16,5.636839379322964
17,0.1784215875122186
18,8.97759204152455
2,1, 1, 1, 0,22, 0.00,15.00,Tuesday
7,-1.5499999999999999
8,0.0
9,0.0
10,0.0
11,0.0
12,0.0
13,0.0
14,8.573390112948483
15,-2.754753061619513
16,5.564414846035959
17,0.10933000138095395
18,8.925392568036442
2,1, 1, 1, 0,22,15.00,30.00,Tuesday
7,-1.4
8,0.0
9,0.0
10,0.0
11,0.0
12,0.0
13,0.0
14,8.554313040757709
15,-2.435008148842222
16,5.533978477038545
17,0.08053605658653851
18,8.885240584081249
2,1, 1, 1, 0,22,30.00,45.00,Tuesday
7,-1.25
8,0.0
9,0.0
10,0.0
11,0.0
12,0.0
13,0.0
14,8.534777235100665
15,-2.219614686984618
16,5.536788080288943
17,0.12492906888672906
18,8.85517193996209
2,1, 1, 1, 0,22,45.00,60.00,Tuesday
7,-1.1
8,0.0
9,0.0
10,0.0
11,0.0
12,0.0
13,0.0
14,8.518767039823946
15,-1.9454097708905438
16,5.5198195011174679
17,0.12335825890204433
18,8.82999198691272
2,1, 1, 1, 0,23, 0.00,15.00,Tuesday
7,-1.25
8,0.0
9,0.0
10,0.0
11,0.0
12,0.0
13,0.0
14,8.460417789884783
15,-2.248730981014758
16,5.397069474893328
17,-0.13525435014082633
18,8.799000967822785
2,1, 1, 1, 0,23,15.00,30.00,Tuesday
7,-1.4
8,0.0
9,0.0
10,0.0
11,0.0
12,0.0
13,0.0
14,8.404271008647396
15,-2.553495380153563
16,5.266332589595834
17,-0.4055979011166073
18,8.757374838342312
2,1, 1, 1, 0,23,30.00,45.00,Tuesday
7,-1.5499999999999999
8,0.0
9,0.0
10,0.0
11,0.0
12,0.0
13,0.0
14,8.343102143992386
15,-2.8589160263546478
16,5.133676669114095
17,-0.6771837118060375
18,8.70668629707026
2,1, 1, 1, 0,23,45.00,60.00,Tuesday
7,-1.7
8,0.0
9,0.0
10,0.0
11,0.0
12,0.0
13,0.0
14,8.277941590513999
15,-3.164680109591868
16,4.997109973048055
17,-0.9505309729954661
18,8.65016611052964
2,1, 1, 1, 0,24, 0.00,15.00,Tuesday
7,-1.7
8,0.0
9,0.0
10,0.0
11,0.0
12,0.0
13,0.0
14,8.228737016614586
15,-3.2189958000543918
16,4.939238832542401
17,-1.0156509996362502
18,8.593816105915673
2,1, 1, 1, 0,24,15.00,30.00,Tuesday
7,-1.7
8,0.0
9,0.0
10,0.0
11,0.0
12,0.0
13,0.0
14,8.177583782137745
15,-3.2738534792634339
16,4.8836999688574
17,-1.0777030828739954
18,8.540578000802585
2,1, 1, 1, 0,24,30.00,45.00,Tuesday
7,-1.7
8,0.0
9,0.0
10,0.0
11,0.0
12,0.0
13,0.0
14,8.127771310484443
15,-3.328599420547585
16,4.828088634802498
17,-1.1397163013041337
18,8.490177165971039
2,1, 1, 1, 0,24,45.00,60.00,Tuesday
7,-1.7
8,0.0
9,0.0
10,0.0
11,0.0
12,0.0
13,0.0
14,8.078909162417558
15,-3.383349964621663
16,4.773408479526495
17,-1.201479896857279
18,8.44137981208605
End of Data
 Number of Records Written=        1152
