Program Version,EnergyPlus, Version 9.5.0-de239b2e5f, YMD=2022.11.22 15:33
1,5,Environment Title[],Latitude[deg],Longitude[deg],Time Zone[],Elevation[m]
2,8,Day of Simulation[],Month[],Day of Month[],DST Indicator[1=yes 0=no],Hour[],StartMinute[],EndMinute[],DayType
3,5,Cumulative Day of Simulation[],Month[],Day of Month[],DST Indicator[1=yes 0=no],DayType  ! When Daily Report Variables Requested
4,2,Cumulative Days of Simulation[],Month[]  ! When Monthly Report Variables Requested
5,1,Cumulative Days of Simulation[] ! When Run Period Report Variables Requested
6,1,Calendar Year of Simulation[] ! When Annual Report Variables Requested
7,1,Environment,Site Outdoor Air Drybulb Temperature [C] !TimeStep
8,1,ZONE ONE,Zone Windows Total Transmitted Solar Radiation Rate [W] !TimeStep
9,1,ZN001:WALL001,Surface Outside Face Sunlit Fraction [] !TimeStep
10,1,ZN001:WALL001,Surface Outside Face Incident Solar Radiation Rate per Area [W/m2] !TimeStep
11,1,ZN001:WALL001:WIN001,Surface Outside Face Sunlit Fraction [] !TimeStep
12,1,ZN001:WALL001:WIN001,Surface Outside Face Incident Solar Radiation Rate per Area [W/m2] !TimeStep
13,1,ZN001:WALL001:WIN001,Surface Window Transmitted Solar Radiation Rate [W] !TimeStep
14,1,ZN001:WALL001,Surface Inside Face Temperature [C] !TimeStep
15,1,ZN001:WALL001,Surface Outside Face Temperature [C] !TimeStep
16,1,ZN001:WALL001:WIN001,Surface Inside Face Temperature [C] !TimeStep
17,1,ZN001:WALL001:WIN001,Surface Outside Face Temperature [C] !TimeStep
18,1,ZONE ONE,Zone Mean Air Temperature [C] !TimeStep
End of Data Dictionary
1,RUN PERIOD 1,  41.98, -87.92,  -6.00, 201.00
2,1, 1, 1, 0, 1, 0.00,15.00,Tuesday
7,-4.324999999999999
8,0.0
9,0.0
10,0.0
11,0.0
12,0.0
13,0.0
14,4.758417088426148
15,-5.9172666082077989
16,2.9900535904069445
17,-4.846677067271912
18,5.19470128790566
2,1, 1, 1, 0, 1,15.00,30.00,Tuesday
7,-6.949999999999999
8,0.0
9,0.0
10,0.0
11,0.0
12,0.0
13,0.0
14,4.58065466748662
15,-8.384812048149236
16,2.4527435001010078
17,-6.9891644644050079
18,5.103475349400061
2,1, 1, 1, 0, 1,30.00,45.00,Tuesday
7,-9.575
8,0.0
9,0.0
10,0.0
11,0.0
12,0.0
13,0.0
14,4.383579101899039
15,-10.860390905452219
16,1.9106727444750505
17,-9.138361268684207
18,4.98115690482556
2,1, 1, 1, 0, 1,45.00,60.00,Tuesday
7,-12.2
8,0.0
9,0.0
10,0.0
11,0.0
12,0.0
13,0.0
14,4.171193602172635
15,-13.342563530723531
16,1.3540867044708876
17,-11.295334073791765
18,4.836990011551433
2,1, 1, 1, 0, 2, 0.00,15.00,Tuesday
7,-12.075
8,0.0
9,0.0
10,0.0
11,0.0
12,0.0
13,0.0
14,4.1087002163705759
15,-13.143668188000053
16,1.27692328782706
17,-11.136737192250167
18,4.706517706461118
2,1, 1, 1, 0, 2,15.00,30.00,Tuesday
7,-11.95
8,0.0
9,0.0
10,0.0
11,0.0
12,0.0
13,0.0
14,4.032220970083663
15,-12.96649717501148
16,1.2413028170147414
17,-10.983517674073369
18,4.606603665548999
2,1, 1, 1, 0, 2,30.00,45.00,Tuesday
7,-11.825
8,0.0
9,0.0
10,0.0
11,0.0
12,0.0
13,0.0
14,3.972254799576897
15,-12.788177876681063
16,1.2105594626085008
17,-10.830084402321518
18,4.532497783147497
2,1, 1, 1, 0, 2,45.00,60.00,Tuesday
7,-11.7
8,0.0
9,0.0
10,0.0
11,0.0
12,0.0
13,0.0
14,3.923186815559402
15,-12.609931855927626
16,1.1923318025434356
17,-10.674501856121993
18,4.473751426610803
2,1, 1, 1, 0, 3, 0.00,15.00,Tuesday
7,-11.549999999999999
8,0.0
9,0.0
10,0.0
11,0.0
12,0.0
13,0.0
14,3.87565023635243
15,-12.484130304459822
16,1.1819803150954159
17,-10.539932536272432
18,4.421697316798024
2,1, 1, 1, 0, 3,15.00,30.00,Tuesday
7,-11.399999999999999
8,0.0
9,0.0
10,0.0
11,0.0
12,0.0
13,0.0
14,3.831242439966979
15,-12.359707275136538
16,1.1676988549425005
17,-10.387319192866585
18,4.371879186613672
2,1, 1, 1, 0, 3,30.00,45.00,Tuesday
7,-11.25
8,0.0
9,0.0
10,0.0
11,0.0
12,0.0
13,0.0
14,3.7877667073585146
15,-12.236825187731573
16,1.1609724802518713
17,-10.252029908886243
18,4.323047407546679
2,1, 1, 1, 0, 3,45.00,60.00,Tuesday
7,-11.1
8,0.0
9,0.0
10,0.0
11,0.0
12,0.0
13,0.0
14,3.7447343766412946
15,-12.115537206756845
16,1.1523583107934883
17,-10.108769156171661
18,4.275020056169353
2,1, 1, 1, 0, 4, 0.00,15.00,Tuesday
7,-11.1
8,0.0
9,0.0
10,0.0
11,0.0
12,0.0
13,0.0
14,3.6981192072886057
15,-12.086665083916382
16,1.10293161547105
17,-10.126194488087322
18,4.227030408562663
2,1, 1, 1, 0, 4,15.00,30.00,Tuesday
7,-11.1
8,0.0
9,0.0
10,0.0
11,0.0
12,0.0
13,0.0
14,3.6519270134359109
15,-12.058905497614301
16,1.0581330516807839
17,-10.15051908526442
18,4.178770896235079
2,1, 1, 1, 0, 4,30.00,45.00,Tuesday
7,-11.1
8,0.0
9,0.0
10,0.0
11,0.0
12,0.0
13,0.0
14,3.605614837274573
15,-12.032699360180905
16,1.0139312540846959
17,-10.174626562180379
18,4.130320090458191
2,1, 1, 1, 0, 4,45.00,60.00,Tuesday
7,-11.1
8,0.0
9,0.0
10,0.0
11,0.0
12,0.0
13,0.0
14,3.559266394836265
15,-12.007916417585872
16,0.969897820451763
17,-10.197979249442199
18,4.081838058981358
2,1, 1, 1, 0, 5, 0.00,15.00,Tuesday
7,-10.975
8,0.0
9,0.0
10,0.0
11,0.0
12,0.0
13,0.0
14,3.518477281876045
15,-11.885862250006716
16,0.95552967751712
17,-10.106651475043237
18,4.034380430008708
2,1, 1, 1, 0, 5,15.00,30.00,Tuesday
7,-10.85
8,0.0
9,0.0
10,0.0
11,0.0
12,0.0
13,0.0
14,3.477870799062572
15,-11.763887511203487
16,0.9398082912168775
17,-10.007467602126326
18,3.988394653167215
2,1, 1, 1, 0, 5,30.00,45.00,Tuesday
7,-10.725
8,0.0
9,0.0
10,0.0
11,0.0
12,0.0
13,0.0
14,3.4382158512027884
15,-11.64189213399687
16,0.924424884767177
17,-9.907547172675209
18,3.9436885686217204
2,1, 1, 1, 0, 5,45.00,60.00,Tuesday
7,-10.6
8,0.0
9,0.0
10,0.0
11,0.0
12,0.0
13,0.0
14,3.399361272091376
15,-11.519906726006824
16,0.9098147600137736
17,-9.807442897263968
18,3.8999246291902249
2,1, 1, 1, 0, 6, 0.00,15.00,Tuesday
7,-10.6
8,0.0
9,0.0
10,0.0
11,0.0
12,0.0
13,0.0
14,3.3534729211959375
15,-11.520815268064999
16,0.8701343093551941
17,-9.806595168605896
18,3.855587403707357
2,1, 1, 1, 0, 6,15.00,30.00,Tuesday
7,-10.6
8,0.0
9,0.0
10,0.0
11,0.0
12,0.0
13,0.0
14,3.308207648160818
15,-11.521661344008463
16,0.8309539005288116
17,-9.812711414883779
18,3.8099785206877887
2,1, 1, 1, 0, 6,30.00,45.00,Tuesday
7,-10.6
8,0.0
9,0.0
10,0.0
11,0.0
12,0.0
13,0.0
14,3.2624188887654488
15,-11.522549203548183
16,0.7919094959919448
17,-9.81939101767523
18,3.763347799783749
2,1, 1, 1, 0, 6,45.00,60.00,Tuesday
7,-10.6
8,0.0
9,0.0
10,0.0
11,0.0
12,0.0
13,0.0
14,3.2163135171418948
15,-11.523435687801355
16,0.7524904612964178
17,-9.82619732913679
18,3.7161829677419284
2,1, 1, 1, 0, 7, 0.00,15.00,Tuesday
7,-10.6
8,0.0
9,0.0
10,0.0
11,0.0
12,0.0
13,0.0
14,3.1722638902774946
15,-11.499597472149718
16,0.7095956668208601
17,-9.84553552884472
18,3.669184170449127
2,1, 1, 1, 0, 7,15.00,30.00,Tuesday
7,-10.6
8,0.0
9,0.0
10,0.0
11,0.0
12,0.0
13,0.0
14,3.128084426759858
15,-11.476993955188057
16,0.6682268496024335
17,-9.86485724773354
18,3.6227090949513967
2,1, 1, 1, 0, 7,30.00,45.00,Tuesday
7,-10.6
8,0.0
9,0.0
10,0.0
11,0.0
12,0.0
13,0.0
14,3.084199494226176
15,-11.45553895063446
16,0.6271732294259778
17,-9.883601167643008
18,3.576731513825515
2,1, 1, 1, 0, 7,45.00,60.00,Tuesday
7,-10.6
8,0.0
9,0.0
10,0.0
11,0.0
12,0.0
13,0.0
14,3.040613679562982
15,-11.435164661543333
16,0.5865335058185792
17,-9.90168201427548
18,3.5311249585370048
2,1, 1, 1, 0, 8, 0.00,15.00,Tuesday
7,-10.45
8,0.0
9,0.0
10,0.0
11,0.0
12,0.0
13,0.0
14,2.996281660176521
15,-11.386316049539966
16,0.5630989954787538
17,-9.855026227591907
18,3.4854452277363525
2,1, 1, 1, 0, 8,15.00,30.00,Tuesday
7,-10.3
8,131.46049686357856
9,1.0
10,22.819555959623899
11,1.0
12,22.819555959623899
13,131.46049686357856
14,3.066928646212821
15,-9.712954432550072
16,0.8754772334774543
17,-9.527053601697617
18,3.456514095831208
2,1, 1, 1, 0, 8,30.00,45.00,Tuesday
7,-10.15
8,645.4723572801172
9,1.0
10,109.75755355442667
11,1.0
12,109.75755355442667
13,645.4723572801172
14,3.450289884368962
15,-3.3456562871811448
16,2.215705695121187
17,-8.38627230672546
18,3.491008941376638
2,1, 1, 1, 0, 8,45.00,60.00,Tuesday
7,-10.0
8,1173.722188202934
9,1.0
10,195.8764694434918
11,1.0
12,195.8764694434918
13,1173.722188202934
14,3.9351541727620877
15,3.138991729554456
16,3.7527276094529045
17,-7.226207599107397
18,3.594862620040059
2,1, 1, 1, 0, 9, 0.00,15.00,Tuesday
7,-9.725
8,1700.1525234071142
9,1.0
10,278.97248314719988
11,1.0
12,278.97248314719988
13,1700.1525234071142
14,4.334249661296095
15,8.317754786052316
16,5.201750174543349
17,-6.197109414454815
18,3.7503224266640045
2,1, 1, 1, 0, 9,15.00,30.00,Tuesday
7,-9.45
8,2255.070422180567
9,1.0
10,364.91995730569456
11,1.0
12,364.91995730569456
13,2255.070422180567
14,4.751070511117488
15,13.395525896922173
16,6.636426214913115
17,-5.168699853511271
18,3.9492624348945486
2,1, 1, 1, 0, 9,30.00,45.00,Tuesday
7,-9.175
8,2622.2019955184457
9,1.0
10,420.35879993239237
11,1.0
12,420.35879993239237
13,2622.2019955184457
14,5.042142095931105
15,16.153569565202504
16,7.609162611398915
17,-4.527738990031253
18,4.172083092773985
2,1, 1, 1, 0, 9,45.00,60.00,Tuesday
7,-8.9
8,3003.314568048804
9,1.0
10,478.00138373643099
11,1.0
12,478.00138373643099
13,3003.314568048804
14,5.384582018877431
15,19.148389976929989
16,8.577172793153239
17,-3.8638420501575299
18,4.408349492630242
2,1, 1, 1, 0,10, 0.00,15.00,Tuesday
7,-8.350000000000002
8,3392.478974266659
9,1.0
10,536.9185644770597
11,1.0
12,536.9185644770597
13,3392.478974266659
14,5.671697762733011
15,20.265732381766033
16,9.578450570956193
17,-3.1391359947768935
18,4.658306148971296
2,1, 1, 1, 0,10,15.00,30.00,Tuesday
7,-7.800000000000001
8,3795.087841886027
9,1.0
10,598.0969199229219
11,1.0
12,598.0969199229219
13,3795.087841886027
14,5.985835257568692
15,21.518561071700888
16,10.593152651119454
17,-2.4076927623169697
18,4.931245999179412
2,1, 1, 1, 0,10,30.00,45.00,Tuesday
7,-7.25
8,4059.203931869736
9,1.0
10,637.6133352894237
11,1.0
12,637.6133352894237
13,4059.203931869736
14,6.228070811212526
15,21.578176563392508
16,11.330799869715179
17,-1.9098023155144688
18,5.213491386993738
2,1, 1, 1, 0,10,45.00,60.00,Tuesday
7,-6.7
8,4319.429732132226
9,1.0
10,676.6412284283772
11,1.0
12,676.6412284283772
13,4319.429732132226
14,6.492651704783949
15,21.73827428423789
16,12.039089635687674
17,-1.4047647193531248
18,5.49342746629677
2,1, 1, 1, 0,11, 0.00,15.00,Tuesday
7,-6.275
8,4574.921361607829
9,1.0
10,715.0112779846514
11,1.0
12,715.0112779846514
13,4574.921361607829
14,6.833514115336545
15,23.836074778083576
16,12.7748231364626
17,-0.6881913916516851
18,5.772825843395206
2,1, 1, 1, 0,11,15.00,30.00,Tuesday
7,-5.85
8,4824.399035195676
9,1.0
10,752.5077794605232
11,1.0
12,752.5077794605232
13,4824.399035195676
14,7.163072535431509
15,25.77121917021545
16,13.503910858558357
17,0.007084518009946805
18,6.055786065693115
2,1, 1, 1, 0,11,30.00,45.00,Tuesday
7,-5.425
8,4750.254666574636
9,1.0
10,742.5988714321785
11,1.0
12,742.5988714321785
13,4750.254666574636
14,7.357867897795883
15,25.62311994149534
16,13.642543455551618
17,0.30172922605459009
18,6.325038339168143
2,1, 1, 1, 0,11,45.00,60.00,Tuesday
7,-5.0
8,4644.311010858884
9,1.0
10,727.8169025450712
11,1.0
12,727.8169025450712
13,4644.311010858884
14,7.54798564314107
15,25.39409894149058
16,13.692652997559776
17,0.5656714629736825
18,6.5678203983364409
2,1, 1, 1, 0,12, 0.00,15.00,Tuesday
7,-4.575
8,4462.1200229276359
9,1.0
10,700.3759009170325
11,1.0
12,700.3759009170325
13,4462.1200229276359
14,7.680584715766109
15,24.651633566700015
16,13.588201480003079
17,0.7736773220550504
18,6.777043689542546
2,1, 1, 1, 0,12,15.00,30.00,Tuesday
7,-4.15
8,4327.00183629375
9,1.0
10,681.6705029034473
11,1.0
12,681.6705029034473
13,4327.00183629375
14,7.835383099998015
15,24.32134670610667
16,13.56381143759097
17,1.0475443886724634
18,6.960294498951255
2,1, 1, 1, 0,12,30.00,45.00,Tuesday
7,-3.7249999999999998
8,3798.7472375708705
9,1.0
10,602.01865277251
11,1.0
12,602.01865277251
13,3798.7472375708705
14,7.755617002875824
15,21.293058796773118
16,12.781691386084276
17,0.841913923344805
18,7.096460455952967
2,1, 1, 1, 0,12,45.00,60.00,Tuesday
7,-3.3
8,3102.4845868256236
9,1.0
10,493.55004396206007
11,1.0
12,493.55004396206007
13,3102.4845868256236
14,7.565400344746672
15,17.11473739022021
16,11.543281942652243
17,0.3903653861643761
18,7.161945679762656
2,1, 1, 1, 0,13, 0.00,15.00,Tuesday
7,-3.0249999999999996
8,2561.7097713724044
9,1.0
10,412.335026418112
11,1.0
12,412.335026418112
13,2561.7097713724044
14,7.432211632487692
15,14.270631205542936
16,10.549348175081946
17,0.07983635324376337
18,7.17084906308623
2,1, 1, 1, 0,13,15.00,30.00,Tuesday
7,-2.75
8,1876.216537660609
9,1.0
10,305.94037763660148
11,1.0
12,305.94037763660148
13,1876.216537660609
14,7.136704669128464
15,10.09741926687035
16,9.187311211176678
17,-0.4523747376828169
18,7.132565505054418
2,1, 1, 1, 0,13,30.00,45.00,Tuesday
7,-2.475
8,1712.9192833280932
9,1.0
10,281.0763483922329
11,1.0
12,281.0763483922329
13,1712.9192833280932
14,7.111827789637906
15,9.582534460640194
16,8.849235550767958
17,-0.33099068807837286
18,7.081001010534626
2,1, 1, 1, 0,13,45.00,60.00,Tuesday
7,-2.2
8,1553.0237364984283
9,1.0
10,256.7721209415886
11,1.0
12,256.7721209415886
13,1553.0237364984283
14,7.079753459947046
15,8.978034748567103
16,8.585355216204448
17,-0.18543827003696834
18,7.036381509306587
2,1, 1, 1, 0,14, 0.00,15.00,Tuesday
7,-1.9250000000000003
8,1268.6624429811005
9,1.0
10,210.73276284570657
11,1.0
12,210.73276284570657
13,1268.6624429811005
14,6.948960759544501
15,7.429956026162792
16,8.000051941848369
17,-0.26544385712122678
18,6.99581905820726
2,1, 1, 1, 0,14,15.00,30.00,Tuesday
7,-1.6500000000000002
8,1126.9817672614705
9,1.0
10,189.38488290342594
11,1.0
12,189.38488290342594
13,1126.9817672614705
14,6.920072922119194
15,7.026465142335614
16,7.717950697831668
17,-0.14168345408347705
18,6.95990802716404
2,1, 1, 1, 0,14,30.00,45.00,Tuesday
7,-1.375
8,1074.8216665395078
9,1.0
10,179.3940297802914
11,1.0
12,179.3940297802914
13,1074.8216665395078
14,6.914370579053456
15,7.148512848321248
16,7.646593924814624
17,0.09190450828384656
18,6.930238675598362
2,1, 1, 1, 0,14,45.00,60.00,Tuesday
7,-1.1
8,1022.0656652694047
9,1.0
10,169.43349014176136
11,1.0
12,169.43349014176136
13,1022.0656652694047
14,6.906262597006296
15,7.247302096062852
16,7.568972346510122
17,0.3238981702753563
18,6.906531518912878
2,1, 1, 1, 0,15, 0.00,15.00,Tuesday
7,-1.1
8,1075.788233603826
9,1.0
10,178.15692317953907
11,1.0
12,178.15692317953907
13,1075.788233603826
14,6.967618103166904
15,8.069147745682008
16,7.702469685530332
17,0.45139262615884948
18,6.891615448202885
2,1, 1, 1, 0,15,15.00,30.00,Tuesday
7,-1.1
8,1010.6735003059926
9,1.0
10,166.40516310952945
11,1.0
12,166.40516310952945
13,1010.6735003059926
14,6.918956624889606
15,7.701188136202701
16,7.552164745611435
17,0.389203266248785
18,6.8804740454548078
2,1, 1, 1, 0,15,30.00,45.00,Tuesday
7,-1.1
8,852.1817359938502
9,1.0
10,140.8967369711617
11,1.0
12,140.8967369711617
13,852.1817359938502
14,6.8094769779549619
15,6.493984181344871
16,7.142918429531619
17,0.15879126645074849
18,6.861369580995391
2,1, 1, 1, 0,15,45.00,60.00,Tuesday
7,-1.1
8,701.2761174120806
9,1.0
10,116.57355796743004
11,1.0
12,116.57355796743004
13,701.2761174120806
14,6.700298982197068
15,5.286398850025792
16,6.707566192317358
17,-0.08747765586576861
18,6.8266448119859819
2,1, 1, 1, 0,16, 0.00,15.00,Tuesday
7,-1.1
8,556.5727379451323
9,1.0
10,93.14939272689483
11,1.0
12,93.14939272689483
13,556.5727379451323
14,6.603968840850356
15,4.234967645577416
16,6.3191912120673809
17,-0.2585449346892119
18,6.775240372018092
2,1, 1, 1, 0,16,15.00,30.00,Tuesday
7,-1.1
8,345.5213642160369
9,1.0
10,57.94047897402063
11,1.0
12,57.94047897402063
13,345.5213642160369
14,6.421849758525405
15,2.1098019672179628
16,5.754045730274129
17,-0.5849805602827019
18,6.700695937190245
2,1, 1, 1, 0,16,30.00,45.00,Tuesday
7,-1.1
8,267.8919238232606
9,1.0
10,45.38251793443488
11,1.0
12,45.38251793443488
13,267.8919238232606
14,6.350802106700753
15,1.4979067896094343
16,5.509419730065645
17,-0.6584699696378493
18,6.612343306554831
2,1, 1, 1, 0,16,45.00,60.00,Tuesday
7,-1.1
8,187.0063107528397
9,1.0
10,32.02625108222755
11,1.0
12,32.02625108222755
13,187.0063107528397
14,6.243703681026963
15,0.633227413600525
16,5.277018419368005
17,-0.7434095537075791
18,6.52145482228716
2,1, 1, 1, 0,17, 0.00,15.00,Tuesday
7,-1.1
8,102.57269952681935
9,1.0
10,17.762198626050539
11,1.0
12,17.762198626050539
13,102.57269952681935
14,6.108404096513271
15,-0.6200371160107899
16,4.992388343808557
17,-0.9502118124785284
18,6.429652993762168
2,1, 1, 1, 0,17,15.00,30.00,Tuesday
7,-1.1
8,0.0
9,0.0
10,0.0
11,0.0
12,0.0
13,0.0
14,5.925352947952951
15,-2.4580730470790046
16,4.640318952296639
17,-1.2422593785877894
18,6.327250268397552
2,1, 1, 1, 0,17,30.00,45.00,Tuesday
7,-1.1
8,0.0
9,0.0
10,0.0
11,0.0
12,0.0
13,0.0
14,5.87109736731756
15,-2.5948539307341438
16,4.542975214422427
17,-1.2783697713757079
18,6.227989527978621
2,1, 1, 1, 0,17,45.00,60.00,Tuesday
7,-1.1
8,0.0
9,0.0
10,0.0
11,0.0
12,0.0
13,0.0
14,5.802264275855509
15,-2.7873132109598206
16,4.486242805439474
17,-1.3096698773616709
18,6.144553014815745
2,1, 1, 1, 0,18, 0.00,15.00,Tuesday
7,-1.25
8,0.0
9,0.0
10,0.0
11,0.0
12,0.0
13,0.0
14,5.744955258161533
15,-2.9349463430852569
16,4.398633329000745
17,-1.459329528751141
18,6.077931281218983
2,1, 1, 1, 0,18,15.00,30.00,Tuesday
7,-1.4
8,0.0
9,0.0
10,0.0
11,0.0
12,0.0
13,0.0
14,5.692889701435102
15,-3.0873325933226174
16,4.328947958776325
17,-1.590692822610663
18,6.023324487385775
2,1, 1, 1, 0,18,30.00,45.00,Tuesday
7,-1.5499999999999999
8,0.0
9,0.0
10,0.0
11,0.0
12,0.0
13,0.0
14,5.645092802118343
15,-3.2392228213590759
16,4.262598035249539
17,-1.72379114353987
18,5.975553458846666
2,1, 1, 1, 0,18,45.00,60.00,Tuesday
7,-1.7
8,0.0
9,0.0
10,0.0
11,0.0
12,0.0
13,0.0
14,5.599447228987885
15,-3.391280258905738
16,4.199198098570605
17,-1.8562603791135644
18,5.931213793974996
2,1, 1, 1, 0,19, 0.00,15.00,Tuesday
7,-1.825
8,0.0
9,0.0
10,0.0
11,0.0
12,0.0
13,0.0
14,5.579495830896383
15,-3.241649994132678
16,4.153237414140051
17,-1.928858816258753
18,5.892280682472326
2,1, 1, 1, 0,19,15.00,30.00,Tuesday
7,-1.9500000000000002
8,0.0
9,0.0
10,0.0
11,0.0
12,0.0
13,0.0
14,5.558598246900556
15,-3.173612416926579
16,4.109296156930384
17,-2.0222996810138058
18,5.860446639704164
2,1, 1, 1, 0,19,30.00,45.00,Tuesday
7,-2.075
8,0.0
9,0.0
10,0.0
11,0.0
12,0.0
13,0.0
14,5.533063284632749
15,-3.247045807942709
16,4.0679867622613419
17,-2.1248975704962165
18,5.8340672653323859
2,1, 1, 1, 0,19,45.00,60.00,Tuesday
7,-2.2
8,0.0
9,0.0
10,0.0
11,0.0
12,0.0
13,0.0
14,5.51063767213538
15,-3.223745223082142
16,4.0271985234918479
17,-2.226158309404468
18,5.810086177608103
2,1, 1, 1, 0,20, 0.00,15.00,Tuesday
7,-1.9250000000000003
8,0.0
9,0.0
10,0.0
11,0.0
12,0.0
13,0.0
14,5.50467481878739
15,-2.922292171208985
16,4.062643737697613
17,-2.003779533385
18,5.788722250438557
2,1, 1, 1, 0,20,15.00,30.00,Tuesday
7,-1.6500000000000002
8,0.0
9,0.0
10,0.0
11,0.0
12,0.0
13,0.0
14,5.498308812844798
15,-2.623896304726181
16,4.099769013478635
17,-1.7695403230518423
18,5.770363179500395
2,1, 1, 1, 0,20,30.00,45.00,Tuesday
7,-1.375
8,0.0
9,0.0
10,0.0
11,0.0
12,0.0
13,0.0
14,5.493588753391301
15,-2.3267609279517789
16,4.138145553145193
17,-1.5334388540053397
18,5.75462855675551
2,1, 1, 1, 0,20,45.00,60.00,Tuesday
7,-1.1
8,0.0
9,0.0
10,0.0
11,0.0
12,0.0
13,0.0
14,5.49032398924667
15,-2.0309050028262889
16,4.178316362824262
17,-1.2956867624410507
18,5.740892071976788
2,1, 1, 1, 0,21, 0.00,15.00,Tuesday
7,-1.25
8,0.0
9,0.0
10,0.0
11,0.0
12,0.0
13,0.0
14,5.444775298359055
15,-2.3130516149209097
16,4.1336319905894929
17,-1.4196975901201086
18,5.722540512563508
2,1, 1, 1, 0,21,15.00,30.00,Tuesday
7,-1.4
8,0.0
9,0.0
10,0.0
11,0.0
12,0.0
13,0.0
14,5.400638355656448
15,-2.5301356158168017
16,4.080285737010286
17,-1.5449875215690554
18,5.694986407109194
2,1, 1, 1, 0,21,30.00,45.00,Tuesday
7,-1.5499999999999999
8,0.0
9,0.0
10,0.0
11,0.0
12,0.0
13,0.0
14,5.342876453705514
15,-2.8758167873867706
16,4.022670066267665
17,-1.677256487419072
18,5.657230569372749
2,1, 1, 1, 0,21,45.00,60.00,Tuesday
7,-1.7
8,0.0
9,0.0
10,0.0
11,0.0
12,0.0
13,0.0
14,5.279613378870951
15,-3.32928113865971
16,3.951219558380842
17,-1.8229541035483408
18,5.611295492628911
2,1, 1, 1, 0,22, 0.00,15.00,Tuesday
7,-1.5499999999999999
8,0.0
9,0.0
10,0.0
11,0.0
12,0.0
13,0.0
14,5.286578728763757
15,-2.8399044182490345
16,3.9467771448018995
17,-1.6916599263264516
18,5.571094663336549
2,1, 1, 1, 0,22,15.00,30.00,Tuesday
7,-1.4
8,0.0
9,0.0
10,0.0
11,0.0
12,0.0
13,0.0
14,5.282337989545027
15,-2.508527495536803
16,3.9639866654348454
17,-1.5612940554270836
18,5.543973378010858
2,1, 1, 1, 0,22,30.00,45.00,Tuesday
7,-1.25
8,0.0
9,0.0
10,0.0
11,0.0
12,0.0
13,0.0
14,5.277476858086167
15,-2.287825380046075
16,3.980621099657583
17,-1.4361398962286103
18,5.527618675419578
2,1, 1, 1, 0,22,45.00,60.00,Tuesday
7,-1.1
8,0.0
9,0.0
10,0.0
11,0.0
12,0.0
13,0.0
14,5.276611498050397
15,-2.0042983413014099
16,4.002630225451242
17,-1.3002958540046735
18,5.51683159437148
2,1, 1, 1, 0,23, 0.00,15.00,Tuesday
7,-1.25
8,0.0
9,0.0
10,0.0
11,0.0
12,0.0
13,0.0
14,5.230934133169826
15,-2.307686928930408
16,3.9237146318448596
17,-1.5827252853046617
18,5.501271503992886
2,1, 1, 1, 0,23,15.00,30.00,Tuesday
7,-1.4
8,0.0
9,0.0
10,0.0
11,0.0
12,0.0
13,0.0
14,5.1880500498778849
15,-2.612256378605622
16,3.832470249140272
17,-1.881284701791401
18,5.475748725845037
2,1, 1, 1, 0,23,30.00,45.00,Tuesday
7,-1.5499999999999999
8,0.0
9,0.0
10,0.0
11,0.0
12,0.0
13,0.0
14,5.140678426352421
15,-2.9174809918595487
16,3.739976970594171
17,-2.179861642957462
18,5.441256270709055
2,1, 1, 1, 0,23,45.00,60.00,Tuesday
7,-1.7
8,0.0
9,0.0
10,0.0
11,0.0
12,0.0
13,0.0
14,5.08949063110689
15,-3.2230479360120345
16,3.643779177691613
17,-2.478791428379054
18,5.400674326667622
2,1, 1, 1, 0,24, 0.00,15.00,Tuesday
7,-1.7
8,0.0
9,0.0
10,0.0
11,0.0
12,0.0
13,0.0
14,5.055413795687326
15,-3.2770252650089066
16,3.5976473750242237
17,-2.5401882879618826
18,5.359508719373488
2,1, 1, 1, 0,24,15.00,30.00,Tuesday
7,-1.7
8,0.0
9,0.0
10,0.0
11,0.0
12,0.0
13,0.0
14,5.0172621266207779
15,-3.3316815313700078
16,3.556221013336881
17,-2.601046486093537
18,5.320577521196645
2,1, 1, 1, 0,24,30.00,45.00,Tuesday
7,-1.7
8,0.0
9,0.0
10,0.0
11,0.0
12,0.0
13,0.0
14,4.982087807739971
15,-3.386154977265691
16,3.513956119443776
17,-2.662123119909211
18,5.284035015734618
2,1, 1, 1, 0,24,45.00,60.00,Tuesday
7,-1.7
8,0.0
9,0.0
10,0.0
11,0.0
12,0.0
13,0.0
14,4.94656121648364
15,-3.440713303195015
16,3.473148712747161
17,-2.7228407594166699
18,5.248967114762919
End of Data
 Number of Records Written=        1152
