Program Version,EnergyPlus, Version 9.5.0-de239b2e5f, YMD=2022.11.22 15:34
1,5,Environment Title[],Latitude[deg],Longitude[deg],Time Zone[],Elevation[m]
2,8,Day of Simulation[],Month[],Day of Month[],DST Indicator[1=yes 0=no],Hour[],StartMinute[],EndMinute[],DayType
3,5,Cumulative Day of Simulation[],Month[],Day of Month[],DST Indicator[1=yes 0=no],DayType  ! When Daily Report Variables Requested
4,2,Cumulative Days of Simulation[],Month[]  ! When Monthly Report Variables Requested
5,1,Cumulative Days of Simulation[] ! When Run Period Report Variables Requested
6,1,Calendar Year of Simulation[] ! When Annual Report Variables Requested
7,1,Environment,Site Outdoor Air Drybulb Temperature [C] !TimeStep
8,1,ZONE ONE,Zone Windows Total Transmitted Solar Radiation Rate [W] !TimeStep
9,1,ZN001:WALL001,Surface Outside Face Sunlit Fraction [] !TimeStep
10,1,ZN001:WALL001,Surface Outside Face Incident Solar Radiation Rate per Area [W/m2] !TimeStep
11,1,ZN001:WALL001:WIN001,Surface Outside Face Sunlit Fraction [] !TimeStep
12,1,ZN001:WALL001:WIN001,Surface Outside Face Incident Solar Radiation Rate per Area [W/m2] !TimeStep
13,1,ZN001:WALL001:WIN001,Surface Window Transmitted Solar Radiation Rate [W] !TimeStep
14,1,ZN001:WALL001,Surface Inside Face Temperature [C] !TimeStep
15,1,ZN001:WALL001,Surface Outside Face Temperature [C] !TimeStep
16,1,ZN001:WALL001:WIN001,Surface Inside Face Temperature [C] !TimeStep
17,1,ZN001:WALL001:WIN001,Surface Outside Face Temperature [C] !TimeStep
18,1,ZONE ONE,Zone Mean Air Temperature [C] !TimeStep
End of Data Dictionary
1,RUN PERIOD 1,  41.98, -87.92,  -6.00, 201.00
2,1, 1, 1, 0, 1, 0.00,15.00,Tuesday
7,-4.324999999999999
8,0.0
9,0.0
10,0.0
11,0.0
12,0.0
13,0.0
14,9.604499962276434
15,-5.829134015923689
16,7.155338668322088
17,-4.144854034272669
18,10.161615946376524
2,1, 1, 1, 0, 1,15.00,30.00,Tuesday
7,-6.949999999999999
8,0.0
9,0.0
10,0.0
11,0.0
12,0.0
13,0.0
14,9.41866135980735
15,-8.295835152905001
16,6.6263491318302389
17,-6.286949734411735
18,10.055418875683186
2,1, 1, 1, 0, 1,30.00,45.00,Tuesday
7,-9.575
8,0.0
9,0.0
10,0.0
11,0.0
12,0.0
13,0.0
14,9.213201937524414
15,-10.770411253865369
16,6.090035037236362
17,-8.435289282287727
18,9.919344217362422
2,1, 1, 1, 0, 1,45.00,60.00,Tuesday
7,-12.2
8,0.0
9,0.0
10,0.0
11,0.0
12,0.0
13,0.0
14,8.992456905627341
15,-13.251638052359147
16,5.538335142993276
17,-10.590970697144883
18,9.762936167661663
2,1, 1, 1, 0, 2, 0.00,15.00,Tuesday
7,-12.075
8,0.0
9,0.0
10,0.0
11,0.0
12,0.0
13,0.0
14,8.915237829667765
15,-13.052048327914895
16,5.450852107188098
17,-10.421835349784829
18,9.621592604681691
2,1, 1, 1, 0, 2,15.00,30.00,Tuesday
7,-11.95
8,0.0
9,0.0
10,0.0
11,0.0
12,0.0
13,0.0
14,8.825255875271486
15,-12.875172320508707
16,5.401330694883313
17,-10.27181688135056
18,9.51114834680958
2,1, 1, 1, 0, 2,30.00,45.00,Tuesday
7,-11.825
8,0.0
9,0.0
10,0.0
11,0.0
12,0.0
13,0.0
14,8.751929959993089
15,-12.697186541867474
16,5.357302924756368
17,-10.121522191477311
18,9.425806205252118
2,1, 1, 1, 0, 2,45.00,60.00,Tuesday
7,-11.7
8,0.0
9,0.0
10,0.0
11,0.0
12,0.0
13,0.0
14,8.689236723429243
15,-12.519294874879832
16,5.325788581246229
17,-9.969104857209345
18,9.354718725749157
2,1, 1, 1, 0, 3, 0.00,15.00,Tuesday
7,-11.549999999999999
8,0.0
9,0.0
10,0.0
11,0.0
12,0.0
13,0.0
14,8.628012690831819
15,-12.391314405672598
16,5.301570153547914
17,-9.816342708142657
18,9.289354354980649
2,1, 1, 1, 0, 3,15.00,30.00,Tuesday
7,-11.399999999999999
8,0.0
9,0.0
10,0.0
11,0.0
12,0.0
13,0.0
14,8.569644938909108
15,-12.264617724471908
16,5.279017901645034
17,-9.66334172522329
18,9.225708804977007
2,1, 1, 1, 0, 3,30.00,45.00,Tuesday
7,-11.25
8,0.0
9,0.0
10,0.0
11,0.0
12,0.0
13,0.0
14,8.511967189111707
15,-12.139342600335479
16,5.258092976434227
17,-9.510045166916939
18,9.162776274614537
2,1, 1, 1, 0, 3,45.00,60.00,Tuesday
7,-11.1
8,0.0
9,0.0
10,0.0
11,0.0
12,0.0
13,0.0
14,8.454721750074878
15,-12.015542183383765
16,5.237756310993291
17,-9.356662035192926
18,9.100540957471486
2,1, 1, 1, 0, 4, 0.00,15.00,Tuesday
7,-11.1
8,0.0
9,0.0
10,0.0
11,0.0
12,0.0
13,0.0
14,8.393733060290114
15,-11.989818137614729
16,5.175735487915858
17,-9.39704624716228
18,9.038246535154565
2,1, 1, 1, 0, 4,15.00,30.00,Tuesday
7,-11.1
8,0.0
9,0.0
10,0.0
11,0.0
12,0.0
13,0.0
14,8.333174012415248
15,-11.965073651084874
16,5.116238942303312
17,-9.435875038241307
18,8.975569389785618
2,1, 1, 1, 0, 4,30.00,45.00,Tuesday
7,-11.1
8,0.0
9,0.0
10,0.0
11,0.0
12,0.0
13,0.0
14,8.272472082408987
15,-11.941733888081802
16,5.0570689062312799
17,-9.473582382788209
18,8.912622450260399
2,1, 1, 1, 0, 4,45.00,60.00,Tuesday
7,-11.1
8,0.0
9,0.0
10,0.0
11,0.0
12,0.0
13,0.0
14,8.211734609632975
15,-11.919673747827016
16,4.998085382987256
17,-9.510158878590687
18,8.84961783015351
2,1, 1, 1, 0, 5, 0.00,15.00,Tuesday
7,-10.975
8,0.0
9,0.0
10,0.0
11,0.0
12,0.0
13,0.0
14,8.156488355933672
15,-11.797963380366971
16,4.970444849572857
17,-9.421232497808888
18,8.787718505942208
2,1, 1, 1, 0, 5,15.00,30.00,Tuesday
7,-10.85
8,0.0
9,0.0
10,0.0
11,0.0
12,0.0
13,0.0
14,8.101468639824495
15,-11.676305420747143
16,4.941172001487871
17,-9.324228769224988
18,8.727385762495837
2,1, 1, 1, 0, 5,30.00,45.00,Tuesday
7,-10.725
8,0.0
9,0.0
10,0.0
11,0.0
12,0.0
13,0.0
14,8.047480645011447
15,-11.554624689453869
16,4.912287598744797
17,-9.226484707152963
18,8.668390075508551
2,1, 1, 1, 0, 5,45.00,60.00,Tuesday
7,-10.6
8,0.0
9,0.0
10,0.0
11,0.0
12,0.0
13,0.0
14,7.994346654841759
15,-11.432953379299809
16,4.884242644157837
17,-9.128548083882152
18,8.61036510761743
2,1, 1, 1, 0, 6, 0.00,15.00,Tuesday
7,-10.6
8,0.0
9,0.0
10,0.0
11,0.0
12,0.0
13,0.0
14,7.934575541783569
15,-11.434093003818843
16,4.831987708216161
17,-9.130156320278502
18,8.551765302306093
2,1, 1, 1, 0, 6,15.00,30.00,Tuesday
7,-10.6
8,0.0
9,0.0
10,0.0
11,0.0
12,0.0
13,0.0
14,7.8754485234604
15,-11.435201630778538
16,4.780379329098594
17,-9.138319803374543
18,8.491922933350601
2,1, 1, 1, 0, 6,30.00,45.00,Tuesday
7,-10.6
8,0.0
9,0.0
10,0.0
11,0.0
12,0.0
13,0.0
14,7.815818488970241
15,-11.43635108606384
16,4.728922099678243
17,-9.146985605107489
18,8.431133168090194
2,1, 1, 1, 0, 6,45.00,60.00,Tuesday
7,-10.6
8,0.0
9,0.0
10,0.0
11,0.0
12,0.0
13,0.0
14,7.755922553369979
15,-11.437497442003517
16,4.6771229489222609
17,-9.155764327564839
18,8.369903414427034
2,1, 1, 1, 0, 7, 0.00,15.00,Tuesday
7,-10.6
8,0.0
9,0.0
10,0.0
11,0.0
12,0.0
13,0.0
14,7.697883905639868
15,-11.416175994472093
16,4.6194797186958
17,-9.187128886078654
18,8.308883401513937
2,1, 1, 1, 0, 7,15.00,30.00,Tuesday
7,-10.6
8,0.0
9,0.0
10,0.0
11,0.0
12,0.0
13,0.0
14,7.639784654118984
15,-11.395959393141468
16,4.563681403198586
17,-9.21873846696667
18,8.248397291956183
2,1, 1, 1, 0, 7,30.00,45.00,Tuesday
7,-10.6
8,0.0
9,0.0
10,0.0
11,0.0
12,0.0
13,0.0
14,7.582016848748778
15,-11.376775824792132
16,4.508322137558309
17,-9.249479301808606
18,8.1884129590765
2,1, 1, 1, 0, 7,45.00,60.00,Tuesday
7,-10.6
8,0.0
9,0.0
10,0.0
11,0.0
12,0.0
13,0.0
14,7.524575258159057
15,-11.358563825934106
16,4.453468420992294
17,-9.279229196278039
18,8.12881124324869
2,1, 1, 1, 0, 8, 0.00,15.00,Tuesday
7,-10.45
8,0.0
9,0.0
10,0.0
11,0.0
12,0.0
13,0.0
14,7.466743894992525
15,-11.30802000935371
16,4.420183522059347
17,-9.224771973812154
18,8.069248031900156
2,1, 1, 1, 0, 8,15.00,30.00,Tuesday
7,-10.3
8,215.5879980222353
9,1.0
10,22.819555959623899
11,1.0
12,22.819555959623899
13,215.5879980222353
14,7.537640803697617
15,-9.633826006167864
16,4.668243844491315
17,-8.925406234784419
18,8.030294256673601
2,1, 1, 1, 0, 8,30.00,45.00,Tuesday
7,-10.15
8,1058.5392312119832
9,1.0
10,109.75755355442667
11,1.0
12,109.75755355442667
13,1058.5392312119832
14,7.964411461928563
15,-3.254818875381026
16,5.772063029144078
17,-7.941210148163577
18,8.07023401830956
2,1, 1, 1, 0, 8,45.00,60.00,Tuesday
7,-10.0
8,1924.8399544048012
9,1.0
10,195.8764694434918
11,1.0
12,195.8764694434918
13,1924.8399544048012
14,8.495400928573993
15,3.2106641460671736
16,7.005609822452243
17,-6.970006824217478
18,8.197162073149867
2,1, 1, 1, 0, 9, 0.00,15.00,Tuesday
7,-9.725
8,2788.1568045040946
9,1.0
10,278.97248314719988
11,1.0
12,278.97248314719988
13,2788.1568045040946
14,8.993276666995657
15,8.397054500860339
16,8.297097003711997
17,-6.09918085881543
18,8.384851958251824
2,1, 1, 1, 0, 9,15.00,30.00,Tuesday
7,-9.45
8,3698.191694964431
9,1.0
10,364.91995730569456
11,1.0
12,364.91995730569456
13,3698.191694964431
14,9.481163886469283
15,13.467869194429654
16,9.618735250707573
17,-5.23364927732689
18,8.621673255829144
2,1, 1, 1, 0, 9,30.00,45.00,Tuesday
7,-9.175
8,4300.2673206835229
9,1.0
10,420.35879993239237
11,1.0
12,420.35879993239237
13,4300.2673206835229
14,9.836004345985155
15,16.22400959744791
16,10.508471735123294
17,-4.6837837611299168
18,8.886216853291599
2,1, 1, 1, 0, 9,45.00,60.00,Tuesday
7,-8.9
8,4925.271017558337
9,1.0
10,478.00138373643099
11,1.0
12,478.00138373643099
13,4925.271017558337
14,10.25055961053283
15,19.21763422217324
16,11.38593094342184
17,-4.1250971457319569
18,9.167351351327966
2,1, 1, 1, 0,10, 0.00,15.00,Tuesday
7,-8.350000000000002
8,5563.47927965646
9,1.0
10,536.9185644770597
11,1.0
12,536.9185644770597
13,5563.47927965646
14,10.616845159303326
15,20.330090496496426
16,12.305644935850524
17,-3.483528991624894
18,9.4654198136352
2,1, 1, 1, 0,10,15.00,30.00,Tuesday
7,-7.800000000000001
8,6223.735720388039
9,1.0
10,598.0969199229219
11,1.0
12,598.0969199229219
13,6223.735720388039
14,11.016223095451837
15,21.57931648014244
16,13.243236611761916
17,-2.8398084378507066
18,9.60686982911493
2,1, 1, 1, 0,10,30.00,45.00,Tuesday
7,-7.25
8,6656.871608685562
9,1.0
10,637.6133352894237
11,1.0
12,637.6133352894237
13,6656.871608685562
14,11.291382070222273
15,21.63424081300159
16,13.926005573132102
17,-2.3677397932038959
18,9.880378482085625
2,1, 1, 1, 0,10,45.00,60.00,Tuesday
7,-6.7
8,7083.627635407371
9,1.0
10,676.6412284283772
11,1.0
12,676.6412284283772
13,7083.627635407371
14,11.558801661987724
15,21.790396109945598
16,14.545840601030705
17,-1.9003304787853495
18,10.083272411313173
2,1, 1, 1, 0,11, 0.00,15.00,Tuesday
7,-6.275
8,7502.619881932496
9,1.0
10,715.0112779846514
11,1.0
12,715.0112779846514
13,7502.619881932496
14,11.979040534012246
15,23.890178199532163
16,15.22219397489522
17,-1.2422077954917086
18,10.551233843238812
2,1, 1, 1, 0,11,15.00,30.00,Tuesday
7,-5.85
8,7911.749570952164
9,1.0
10,752.5077794605232
11,1.0
12,752.5077794605232
13,7911.749570952164
14,12.452519935529569
15,25.82741301872915
16,15.955583103127424
17,-0.5963185962843909
18,10.988345265460686
2,1, 1, 1, 0,11,30.00,45.00,Tuesday
7,-5.425
8,7790.156876744835
9,1.0
10,742.5988714321785
11,1.0
12,742.5988714321785
13,7790.156876744835
14,12.744416372258679
15,25.67932539108545
16,16.22237417776239
17,-0.2725205545935978
18,11.395055412087999
2,1, 1, 1, 0,11,45.00,60.00,Tuesday
7,-5.0
8,7616.415097398768
9,1.0
10,727.8169025450712
11,1.0
12,727.8169025450712
13,7616.415097398768
14,13.02243451573314
15,25.451273814031255
16,16.390902109699029
17,0.02500524140680227
18,11.755227254497087
2,1, 1, 1, 0,12, 0.00,15.00,Tuesday
7,-4.575
8,7317.63187899619
9,1.0
10,700.3759009170325
11,1.0
12,700.3759009170325
13,7317.63187899619
14,13.22271431519765
15,24.709454700817174
16,16.418225377316504
17,0.28118473916640598
18,12.065084178544618
2,1, 1, 1, 0,12,15.00,30.00,Tuesday
7,-4.15
8,7096.045470548525
9,1.0
10,681.6705029034473
11,1.0
12,681.6705029034473
13,7096.045470548525
14,13.443095695624708
15,24.379882106498888
16,16.503934544716686
17,0.5961471729244749
18,12.337315829761513
2,1, 1, 1, 0,12,30.00,45.00,Tuesday
7,-3.7249999999999998
8,6229.736928425406
9,1.0
10,602.01865277251
11,1.0
12,602.01865277251
13,6229.736928425406
14,13.357323887624446
15,21.351161265084256
16,15.94811539770194
17,0.5137581915911369
18,12.547449855529785
2,1, 1, 1, 0,12,45.00,60.00,Tuesday
7,-3.3
8,5087.904404183855
9,1.0
10,493.55004396206007
11,1.0
12,493.55004396206007
13,5087.904404183855
14,13.161970260288064
15,17.174227485507939
16,14.9625923803805
17,0.22292791305596894
18,12.662954060341712
2,1, 1, 1, 0,13, 0.00,15.00,Tuesday
7,-3.0249999999999996
8,4201.063393949559
9,1.0
10,412.335026418112
11,1.0
12,412.335026418112
13,4201.063393949559
14,13.02712388894478
15,14.33136872011012
16,14.166006878652752
17,0.044269759404187428
18,12.70223380634316
2,1, 1, 1, 0,13,15.00,30.00,Tuesday
7,-2.75
8,3076.892122430221
9,1.0
10,305.94037763660148
11,1.0
12,305.94037763660148
13,3076.892122430221
14,12.689826539565904
15,10.159015970310206
16,13.029023869745516
17,-0.3291225559929103
18,12.676419527899207
2,1, 1, 1, 0,13,30.00,45.00,Tuesday
7,-2.475
8,2809.0935899127655
9,1.0
10,281.0763483922329
11,1.0
12,281.0763483922329
13,2809.0935899127655
14,12.658406398986064
15,9.646745120918866
16,12.715764372717445
17,-0.16695599307053045
18,12.630133290574508
2,1, 1, 1, 0,13,45.00,60.00,Tuesday
7,-2.2
8,2546.8736709552365
9,1.0
10,256.7721209415886
11,1.0
12,256.7721209415886
13,2546.8736709552365
14,12.619300828554245
15,9.041642946101574
16,12.500693363220762
17,0.02019577186507604
18,12.59084276743556
2,1, 1, 1, 0,14, 0.00,15.00,Tuesday
7,-1.9250000000000003
8,2080.536760270814
9,1.0
10,210.73276284570657
11,1.0
12,210.73276284570657
13,2080.536760270814
14,12.4505011340808
15,7.494497169993091
16,12.009496863480195
17,0.01775637795304874
18,12.554749456499235
2,1, 1, 1, 0,14,15.00,30.00,Tuesday
7,-1.6500000000000002
8,1848.1882299855229
9,1.0
10,189.38488290342594
11,1.0
12,189.38488290342594
13,1848.1882299855229
14,12.417138208712501
15,7.096095557417203
16,11.776943686007144
17,0.18157004008128298
18,12.520336592774159
2,1, 1, 1, 0,14,30.00,45.00,Tuesday
7,-1.375
8,1762.648528253172
9,1.0
10,179.3940297802914
11,1.0
12,179.3940297802914
13,1762.648528253172
14,12.400452390973865
15,7.220160621022919
16,11.72139058047361
17,0.4337827519368602
18,12.48948549695726
2,1, 1, 1, 0,14,45.00,60.00,Tuesday
7,-1.1
8,1676.1315823352277
9,1.0
10,169.43349014176136
11,1.0
12,169.43349014176136
13,1676.1315823352277
14,12.379579820415076
15,7.321549664712868
16,11.65673635979897
17,0.6850995622775145
18,12.462024640674422
2,1, 1, 1, 0,15, 0.00,15.00,Tuesday
7,-1.1
8,1764.2336451764168
9,1.0
10,178.15692317953907
11,1.0
12,178.15692317953907
13,1764.2336451764168
14,12.44304819177605
15,8.1407091498699
16,11.760584166657168
17,0.806288657776804
18,12.442621191190624
2,1, 1, 1, 0,15,15.00,30.00,Tuesday
7,-1.1
8,1657.44905719483
9,1.0
10,166.40516310952945
11,1.0
12,166.40516310952945
13,1657.44905719483
14,12.380423039860802
15,7.777125593041537
16,11.643066208343044
17,0.7691514692027113
18,12.42578793485873
2,1, 1, 1, 0,15,30.00,45.00,Tuesday
7,-1.1
8,1397.5312645024297
9,1.0
10,140.8967369711617
11,1.0
12,140.8967369711617
13,1397.5312645024297
14,12.25311845023625
15,6.576094276409082
16,11.311434135372338
17,0.5964472953664881
18,12.398229858017704
2,1, 1, 1, 0,15,45.00,60.00,Tuesday
7,-1.1
8,1150.0543343484979
9,1.0
10,116.57355796743004
11,1.0
12,116.57355796743004
13,1150.0543343484979
14,12.135672234465181
15,5.373763506274162
16,10.976554756705412
17,0.4151178877076518
18,12.348768468098556
2,1, 1, 1, 0,16, 0.00,15.00,Tuesday
7,-1.1
8,912.7487358563033
9,1.0
10,93.14939272689483
11,1.0
12,93.14939272689483
13,912.7487358563033
14,12.015109463212033
15,4.327001771371899
16,10.672323523421028
17,0.3190493907867449
18,12.279166790453207
2,1, 1, 1, 0,16,15.00,30.00,Tuesday
7,-1.1
8,566.636069103818
9,1.0
10,57.94047897402063
11,1.0
12,57.94047897402063
13,566.636069103818
14,11.799086727816917
15,2.209820792264461
16,10.210057525359219
17,0.09799082768120116
18,12.183788979797022
2,1, 1, 1, 0,16,30.00,45.00,Tuesday
7,-1.1
8,439.3280485110057
9,1.0
10,45.38251793443488
11,1.0
12,45.38251793443488
13,439.3280485110057
14,11.709591638434182
15,1.6070784927488886
16,9.988416989481039
17,0.08640523299737879
18,12.077962952864182
2,1, 1, 1, 0,16,45.00,60.00,Tuesday
7,-1.1
8,306.6800834820858
9,1.0
10,32.02625108222755
11,1.0
12,32.02625108222755
13,306.6800834820858
14,11.580137792898008
15,0.7531843121776543
16,9.79008629362636
17,0.07583501204436516
18,11.974652722056828
2,1, 1, 1, 0,17, 0.00,15.00,Tuesday
7,-1.1
8,168.21359625367695
9,1.0
10,17.762198626050539
11,1.0
12,17.762198626050539
13,168.21359625367695
14,11.427188988345183
15,-0.4854383791025652
16,9.54405403185109
17,-0.04491370997681088
18,11.871774082820508
2,1, 1, 1, 0,17,15.00,30.00,Tuesday
7,-1.1
8,0.0
9,0.0
10,0.0
11,0.0
12,0.0
13,0.0
14,11.223772571912616
15,-2.3166199144814314
16,9.224810102247887
17,-0.28808865478089276
18,11.755555824166962
2,1, 1, 1, 0,17,30.00,45.00,Tuesday
7,-1.1
8,0.0
9,0.0
10,0.0
11,0.0
12,0.0
13,0.0
14,11.15694033555196
15,-2.4463860043640355
16,9.126040364062192
17,-0.250487440537313
18,11.64209125819107
2,1, 1, 1, 0,17,45.00,60.00,Tuesday
7,-1.1
8,0.0
9,0.0
10,0.0
11,0.0
12,0.0
13,0.0
14,11.073718362386826
15,-2.6268070998499115
16,9.072604757794466
17,-0.20009976601261315
18,11.546139334043698
2,1, 1, 1, 0,18, 0.00,15.00,Tuesday
7,-1.25
8,0.0
9,0.0
10,0.0
11,0.0
12,0.0
13,0.0
14,11.002157936888086
15,-2.776008559451243
16,8.976344291472686
17,-0.3483599844640821
18,11.467970882546594
2,1, 1, 1, 0,18,15.00,30.00,Tuesday
7,-1.4
8,0.0
9,0.0
10,0.0
11,0.0
12,0.0
13,0.0
14,10.936531762860615
15,-2.928490852441735
16,8.896798904056084
17,-0.4799918423902909
18,11.401555840847545
2,1, 1, 1, 0,18,30.00,45.00,Tuesday
7,-1.5499999999999999
8,0.0
9,0.0
10,0.0
11,0.0
12,0.0
13,0.0
14,10.875172096660961
15,-3.0806720932469604
16,8.819370037171268
17,-0.615825471990604
18,11.341134975896564
2,1, 1, 1, 0,18,45.00,60.00,Tuesday
7,-1.7
8,0.0
9,0.0
10,0.0
11,0.0
12,0.0
13,0.0
14,10.815738255469853
15,-3.2330190118090416
16,8.744912977086699
17,-0.750948400772927
18,11.283318451772957
2,1, 1, 1, 0,19, 0.00,15.00,Tuesday
7,-1.825
8,0.0
9,0.0
10,0.0
11,0.0
12,0.0
13,0.0
14,10.77821717220791
15,-3.1019548200597568
16,8.655634076616594
17,-0.9468269343221891
18,11.229893934507432
2,1, 1, 1, 0,19,15.00,30.00,Tuesday
7,-1.9500000000000002
8,0.0
9,0.0
10,0.0
11,0.0
12,0.0
13,0.0
14,10.741241645379102
15,-3.050144606477156
16,8.581782790300395
17,-1.1257517417047894
18,11.1828262241037
2,1, 1, 1, 0,19,30.00,45.00,Tuesday
7,-2.075
8,0.0
9,0.0
10,0.0
11,0.0
12,0.0
13,0.0
14,10.698529640078814
15,-3.1280789703032996
16,8.52485711018278
17,-1.253251636123423
18,11.140645647797829
2,1, 1, 1, 0,19,45.00,60.00,Tuesday
7,-2.2
8,0.0
9,0.0
10,0.0
11,0.0
12,0.0
13,0.0
14,10.65943504464456
15,-3.1189163658589198
16,8.455628027971102
17,-1.4219899517489694
18,11.100292199843912
2,1, 1, 1, 0,20, 0.00,15.00,Tuesday
7,-1.9250000000000003
8,0.0
9,0.0
10,0.0
11,0.0
12,0.0
13,0.0
14,10.63662033825836
15,-2.8209692493611748
16,8.473793065591054
17,-1.215422732512991
18,11.062521586422342
2,1, 1, 1, 0,20,15.00,30.00,Tuesday
7,-1.6500000000000002
8,0.0
9,0.0
10,0.0
11,0.0
12,0.0
13,0.0
14,10.613156023173389
15,-2.5257477787052555
16,8.49122073146998
17,-0.9984039368092681
18,11.02792536114006
2,1, 1, 1, 0,20,30.00,45.00,Tuesday
7,-1.375
8,0.0
9,0.0
10,0.0
11,0.0
12,0.0
13,0.0
14,10.591587381096734
15,-2.2316186917741755
16,8.50990427941872
17,-0.7792656180688482
18,10.996060466224686
2,1, 1, 1, 0,20,45.00,60.00,Tuesday
7,-1.1
8,0.0
9,0.0
10,0.0
11,0.0
12,0.0
13,0.0
14,10.571565964555973
15,-1.9386226714106452
16,8.530578346038397
17,-0.5580264026763189
18,10.966208167853042
2,1, 1, 1, 0,21, 0.00,15.00,Tuesday
7,-1.25
8,0.0
9,0.0
10,0.0
11,0.0
12,0.0
13,0.0
14,10.513869243238027
15,-2.2063608693536369
16,8.490431143591309
17,-0.6160072453662338
18,10.93176846684486
2,1, 1, 1, 0,21,15.00,30.00,Tuesday
7,-1.4
8,0.0
9,0.0
10,0.0
11,0.0
12,0.0
13,0.0
14,10.45696711217336
15,-2.415740693542728
16,8.432735830247225
17,-0.7047674050977548
18,10.88832663655006
2,1, 1, 1, 0,21,30.00,45.00,Tuesday
7,-1.5499999999999999
8,0.0
9,0.0
10,0.0
11,0.0
12,0.0
13,0.0
14,10.387602824002086
15,-2.742119550217334
16,8.383232873454177
17,-0.7480168753170915
18,10.835352566704712
2,1, 1, 1, 0,21,45.00,60.00,Tuesday
7,-1.7
8,0.0
9,0.0
10,0.0
11,0.0
12,0.0
13,0.0
14,10.312977301116725
15,-3.1731923635759324
16,8.333215302646864
17,-0.757538915971395
18,10.775222363201842
2,1, 1, 1, 0,22, 0.00,15.00,Tuesday
7,-1.5499999999999999
8,0.0
9,0.0
10,0.0
11,0.0
12,0.0
13,0.0
14,10.300385456219838
15,-2.7100265720721659
16,8.280487028188077
17,-0.7605401946361781
18,10.721000100251594
2,1, 1, 1, 0,22,15.00,30.00,Tuesday
7,-1.4
8,0.0
9,0.0
10,0.0
11,0.0
12,0.0
13,0.0
14,10.278598850661039
15,-2.3963095118006518
16,8.262505464886886
17,-0.7238941710941163
18,10.679503696935095
2,1, 1, 1, 0,22,30.00,45.00,Tuesday
7,-1.25
8,0.0
9,0.0
10,0.0
11,0.0
12,0.0
13,0.0
14,10.256744209372162
15,-2.1835713796629609
16,8.25721089103854
17,-0.6400052892454937
18,10.648196619326662
2,1, 1, 1, 0,22,45.00,60.00,Tuesday
7,-1.1
8,0.0
9,0.0
10,0.0
11,0.0
12,0.0
13,0.0
14,10.238742755190622
15,-1.9142075193818136
16,8.247653384473722
17,-0.5768483667358169
18,10.621722948283896
2,1, 1, 1, 0,23, 0.00,15.00,Tuesday
7,-1.25
8,0.0
9,0.0
10,0.0
11,0.0
12,0.0
13,0.0
14,10.180339620544452
15,-2.217345643957875
16,8.160644779242603
17,-0.8633476397903905
18,10.589787524809543
2,1, 1, 1, 0,23,15.00,30.00,Tuesday
7,-1.4
8,0.0
9,0.0
10,0.0
11,0.0
12,0.0
13,0.0
14,10.124088091384014
15,-2.522072185618984
16,8.06049703528538
17,-1.1620797827733896
18,10.547723829857582
2,1, 1, 1, 0,23,30.00,45.00,Tuesday
7,-1.5499999999999999
8,0.0
9,0.0
10,0.0
11,0.0
12,0.0
13,0.0
14,10.062944785562605
15,-2.827449659096214
16,7.958273658907274
17,-1.4623396851379198
18,10.497056163937325
2,1, 1, 1, 0,23,45.00,60.00,Tuesday
7,-1.7
8,0.0
9,0.0
10,0.0
11,0.0
12,0.0
13,0.0
14,9.997960428790769
15,-3.1331723820784065
16,7.851792076084223
17,-1.764590104338481
18,10.440890473956998
2,1, 1, 1, 0,24, 0.00,15.00,Tuesday
7,-1.7
8,0.0
9,0.0
10,0.0
11,0.0
12,0.0
13,0.0
14,9.94812720028133
15,-3.187540980164626
16,7.79205389672893
17,-1.8333885926060703
18,10.38468770442074
2,1, 1, 1, 0,24,15.00,30.00,Tuesday
7,-1.7
8,0.0
9,0.0
10,0.0
11,0.0
12,0.0
13,0.0
14,9.896372926596623
15,-3.242407097266501
16,7.737596851709782
17,-1.897953430466373
18,10.331209140557869
2,1, 1, 1, 0,24,30.00,45.00,Tuesday
7,-1.7
8,0.0
9,0.0
10,0.0
11,0.0
12,0.0
13,0.0
14,9.845833966704922
15,-3.2971680749538718
16,7.683055362570315
17,-1.9622477464512259
18,10.280253096593695
2,1, 1, 1, 0,24,45.00,60.00,Tuesday
7,-1.7
8,0.0
9,0.0
10,0.0
11,0.0
12,0.0
13,0.0
14,9.79615664315094
15,-3.351934230741622
16,7.629525511578322
17,-2.0261905715654509
18,10.230719376182885
End of Data
 Number of Records Written=        1152
