Program Version,EnergyPlus, Version 9.5.0-de239b2e5f, YMD=2022.11.22 15:33
1,5,Environment Title[],Latitude[deg],Longitude[deg],Time Zone[],Elevation[m]
2,8,Day of Simulation[],Month[],Day of Month[],DST Indicator[1=yes 0=no],Hour[],StartMinute[],EndMinute[],DayType
3,5,Cumulative Day of Simulation[],Month[],Day of Month[],DST Indicator[1=yes 0=no],DayType  ! When Daily Report Variables Requested
4,2,Cumulative Days of Simulation[],Month[]  ! When Monthly Report Variables Requested
5,1,Cumulative Days of Simulation[] ! When Run Period Report Variables Requested
6,1,Calendar Year of Simulation[] ! When Annual Report Variables Requested
7,1,Environment,Site Outdoor Air Drybulb Temperature [C] !TimeStep
8,1,ZONE ONE,Zone Windows Total Transmitted Solar Radiation Rate [W] !TimeStep
9,1,ZN001:WALL001,Surface Outside Face Sunlit Fraction [] !TimeStep
10,1,ZN001:WALL001,Surface Outside Face Incident Solar Radiation Rate per Area [W/m2] !TimeStep
11,1,ZN001:WALL001:WIN001,Surface Outside Face Sunlit Fraction [] !TimeStep
12,1,ZN001:WALL001:WIN001,Surface Outside Face Incident Solar Radiation Rate per Area [W/m2] !TimeStep
13,1,ZN001:WALL001:WIN001,Surface Window Transmitted Solar Radiation Rate [W] !TimeStep
14,1,ZN001:WALL001,Surface Inside Face Temperature [C] !TimeStep
15,1,ZN001:WALL001,Surface Outside Face Temperature [C] !TimeStep
16,1,ZN001:WALL001:WIN001,Surface Inside Face Temperature [C] !TimeStep
17,1,ZN001:WALL001:WIN001,Surface Outside Face Temperature [C] !TimeStep
18,1,ZONE ONE,Zone Mean Air Temperature [C] !TimeStep
End of Data Dictionary
1,RUN PERIOD 1,  41.98, -87.92,  -6.00, 201.00
2,1, 1, 1, 0, 1, 0.00,15.00,Tuesday
7,-4.324999999999999
8,0.0
9,0.0
10,0.0
11,0.0
12,0.0
13,0.0
14,-0.8017024831031326
15,-6.01908601177218
16,-2.4086333430759625
17,-5.158982502801564
18,-0.5230499061223508
2,1, 1, 1, 0, 1,15.00,30.00,Tuesday
7,-6.949999999999999
8,0.0
9,0.0
10,0.0
11,0.0
12,0.0
13,0.0
14,-0.9773764712811397
15,-8.486927671061937
16,-3.232281836037714
17,-7.1010774754710159
18,-0.606188560258648
2,1, 1, 1, 0, 1,30.00,45.00,Tuesday
7,-9.575
8,0.0
9,0.0
10,0.0
11,0.0
12,0.0
13,0.0
14,-1.175339735095227
15,-10.963967623662676
16,-4.054418789864258
17,-9.049478487461215
18,-0.7265133856207615
2,1, 1, 1, 0, 1,45.00,60.00,Tuesday
7,-12.2
8,0.0
9,0.0
10,0.0
11,0.0
12,0.0
13,0.0
14,-1.3903446602248393
15,-13.447500099515463
16,-4.888558550074322
17,-11.007118689143909
18,-0.8739774743214132
2,1, 1, 1, 0, 2, 0.00,15.00,Tuesday
7,-12.075
8,0.0
9,0.0
10,0.0
11,0.0
12,0.0
13,0.0
14,-1.4426624096125256
15,-13.249649695534722
16,-4.917169421663175
17,-10.880568736731619
18,-1.0069880106762559
2,1, 1, 1, 0, 2,15.00,30.00,Tuesday
7,-11.95
8,0.0
9,0.0
10,0.0
11,0.0
12,0.0
13,0.0
14,-1.5112044842164323
15,-13.072320452070948
16,-4.912215940035196
17,-10.759260347567079
18,-1.1054719964893885
2,1, 1, 1, 0, 2,30.00,45.00,Tuesday
7,-11.825
8,0.0
9,0.0
10,0.0
11,0.0
12,0.0
13,0.0
14,-1.561318485595852
15,-12.893654449584439
16,-4.9057704732279039
17,-10.628615612517138
18,-1.1738058796885849
2,1, 1, 1, 0, 2,45.00,60.00,Tuesday
7,-11.7
8,0.0
9,0.0
10,0.0
11,0.0
12,0.0
13,0.0
14,-1.5989478225493133
15,-12.715040138001064
16,-4.887454194544489
17,-10.492688822247829
18,-1.2234107194246693
2,1, 1, 1, 0, 3, 0.00,15.00,Tuesday
7,-11.549999999999999
8,0.0
9,0.0
10,0.0
11,0.0
12,0.0
13,0.0
14,-1.6344369366468388
15,-12.591805296496722
16,-4.8648785541813599
17,-10.362456964136073
18,-1.2641710811408405
2,1, 1, 1, 0, 3,15.00,30.00,Tuesday
7,-11.399999999999999
8,0.0
9,0.0
10,0.0
11,0.0
12,0.0
13,0.0
14,-1.6659596968694129
15,-12.47005878376645
16,-4.839699067055506
17,-10.232767175112827
18,-1.3013658299522566
2,1, 1, 1, 0, 3,30.00,45.00,Tuesday
7,-11.25
8,0.0
9,0.0
10,0.0
11,0.0
12,0.0
13,0.0
14,-1.696158796185496
15,-12.349985399794856
16,-4.8125495385413619
17,-10.103127401091797
18,-1.3368642486909024
2,1, 1, 1, 0, 3,45.00,60.00,Tuesday
7,-11.1
8,0.0
9,0.0
10,0.0
11,0.0
12,0.0
13,0.0
14,-1.725631827475589
15,-12.231647343647908
16,-4.7846990834297
17,-9.97392782181197
18,-1.3711486063334917
2,1, 1, 1, 0, 4, 0.00,15.00,Tuesday
7,-11.1
8,0.0
9,0.0
10,0.0
11,0.0
12,0.0
13,0.0
14,-1.7587866888793645
15,-12.199209129922722
16,-4.824117688021147
17,-9.992495935755187
18,-1.4053996385688624
2,1, 1, 1, 0, 4,15.00,30.00,Tuesday
7,-11.1
8,0.0
9,0.0
10,0.0
11,0.0
12,0.0
13,0.0
14,-1.7915627025951345
15,-12.168035900549738
16,-4.85710354187114
17,-10.017645217550694
18,-1.4400981392775596
2,1, 1, 1, 0, 4,30.00,45.00,Tuesday
7,-11.1
8,0.0
9,0.0
10,0.0
11,0.0
12,0.0
13,0.0
14,-1.8245506506553895
15,-12.138585363279966
16,-4.889022789646333
17,-10.043029800152909
18,-1.4751605100226318
2,1, 1, 1, 0, 4,45.00,60.00,Tuesday
7,-11.1
8,0.0
9,0.0
10,0.0
11,0.0
12,0.0
13,0.0
14,-1.857672026167509
15,-12.11071818353921
16,-4.920649956962848
17,-10.067826188655318
18,-1.5103708590804924
2,1, 1, 1, 0, 5, 0.00,15.00,Tuesday
7,-10.975
8,0.0
9,0.0
10,0.0
11,0.0
12,0.0
13,0.0
14,-1.883847962311808
15,-11.988316590507349
16,-4.903584960228045
17,-9.98752740125417
18,-1.5443272336171159
2,1, 1, 1, 0, 5,15.00,30.00,Tuesday
7,-10.85
8,0.0
9,0.0
10,0.0
11,0.0
12,0.0
13,0.0
14,-1.9107619567460124
15,-11.866061717691004
16,-4.888667800790813
17,-9.899870552108724
18,-1.5765197700073464
2,1, 1, 1, 0, 5,30.00,45.00,Tuesday
7,-10.725
8,0.0
9,0.0
10,0.0
11,0.0
12,0.0
13,0.0
14,-1.9365826412994352
15,-11.74374524743135
16,-4.873899103033182
17,-9.811260534432279
18,-1.6072416695048162
2,1, 1, 1, 0, 5,45.00,60.00,Tuesday
7,-10.6
8,0.0
9,0.0
10,0.0
11,0.0
12,0.0
13,0.0
14,-1.961544264131313
15,-11.621441435095461
16,-4.858427390579266
17,-9.722287488065263
18,-1.6369217143780488
2,1, 1, 1, 0, 6, 0.00,15.00,Tuesday
7,-10.6
8,0.0
9,0.0
10,0.0
11,0.0
12,0.0
13,0.0
14,-1.9951720558080464
15,-11.622153498878856
16,-4.8806656361604159
17,-9.724991090113236
18,-1.6672978217840096
2,1, 1, 1, 0, 6,15.00,30.00,Tuesday
7,-10.6
8,0.0
9,0.0
10,0.0
11,0.0
12,0.0
13,0.0
14,-2.027278424341057
15,-11.62271670292246
16,-4.9048352737430609
17,-9.731456745047013
18,-1.699177975460608
2,1, 1, 1, 0, 6,30.00,45.00,Tuesday
7,-10.6
8,0.0
9,0.0
10,0.0
11,0.0
12,0.0
13,0.0
14,-2.0600593167816
15,-11.62336437647358
16,-4.928814348540527
17,-9.738718191901853
18,-1.7322973298286926
2,1, 1, 1, 0, 6,45.00,60.00,Tuesday
7,-10.6
8,0.0
9,0.0
10,0.0
11,0.0
12,0.0
13,0.0
14,-2.0932275225997176
15,-11.624008641228232
16,-4.953057988484829
17,-9.746405453856596
18,-1.7661151779899312
2,1, 1, 1, 0, 7, 0.00,15.00,Tuesday
7,-10.6
8,0.0
9,0.0
10,0.0
11,0.0
12,0.0
13,0.0
14,-2.124162311482744
15,-11.597289491348122
16,-4.986313030958172
17,-9.765496412339246
18,-1.7999914153214958
2,1, 1, 1, 0, 7,15.00,30.00,Tuesday
7,-10.6
8,0.0
9,0.0
10,0.0
11,0.0
12,0.0
13,0.0
14,-2.155313614855921
15,-11.571961986725038
16,-5.015198653121502
17,-9.785370858258887
18,-1.8334826645017646
2,1, 1, 1, 0, 7,30.00,45.00,Tuesday
7,-10.6
8,0.0
9,0.0
10,0.0
11,0.0
12,0.0
13,0.0
14,-2.1862662024635228
15,-11.54791261642962
16,-5.043509841279274
17,-9.805010385377614
18,-1.86652653425336
2,1, 1, 1, 0, 7,45.00,60.00,Tuesday
7,-10.6
8,0.0
9,0.0
10,0.0
11,0.0
12,0.0
13,0.0
14,-2.2169635562001717
15,-11.525066418037039
16,-5.071363424566414
17,-9.824051919377439
18,-1.8992100015965133
2,1, 1, 1, 0, 8, 0.00,15.00,Tuesday
7,-10.45
8,0.0
9,0.0
10,0.0
11,0.0
12,0.0
13,0.0
14,-2.248600710358762
15,-11.478246873338233
16,-5.067591668849559
17,-9.791719173463548
18,-1.9318144152175279
2,1, 1, 1, 0, 8,15.00,30.00,Tuesday
7,-10.3
8,48.37781979229514
9,1.0
10,22.819555959623899
11,1.0
12,22.819555959623899
13,48.37781979229514
14,-2.1789464535387825
15,-9.805697674244902
16,-4.672527719653033
17,-9.394704944038267
18,-1.95117631047696
2,1, 1, 1, 0, 8,30.00,45.00,Tuesday
7,-10.15
8,237.88593593245407
9,1.0
10,109.75755355442667
11,1.0
12,109.75755355442667
13,237.88593593245407
14,-1.8341603640868996
15,-3.452977379627379
16,-3.0756905608254216
17,-8.014350695303392
18,-1.9217576915250126
2,1, 1, 1, 0, 8,45.00,60.00,Tuesday
7,-10.0
8,433.6486066510219
9,1.0
10,195.8764694434918
11,1.0
12,195.8764694434918
13,433.6486066510219
14,-1.4251119163142899
15,3.037594882292082
16,-1.3294873586119139
17,-6.596283867967713
18,-1.8389570817308086
2,1, 1, 1, 0, 9, 0.00,15.00,Tuesday
7,-9.725
8,629.8133241912386
9,1.0
10,278.97248314719988
11,1.0
12,278.97248314719988
13,629.8133241912386
14,-1.107565099239876
15,8.228862542307393
16,0.2428686092486032
17,-5.36062276264704
18,-1.7139330849401633
2,1, 1, 1, 0, 9,15.00,30.00,Tuesday
7,-9.45
8,837.7116854113558
9,1.0
10,364.91995730569456
11,1.0
12,364.91995730569456
13,837.7116854113558
14,-0.7692877293770141
15,13.31040593341814
16,1.7968799071963986
17,-4.130814236807453
18,-1.5530478363150738
2,1, 1, 1, 0, 9,30.00,45.00,Tuesday
7,-9.175
8,976.7624830576193
9,1.0
10,420.35879993239237
11,1.0
12,420.35879993239237
13,976.7624830576193
14,-0.5434611908139808
15,16.071568159180605
16,2.808915280483916
17,-3.360673561691897
18,-1.3736936307891575
2,1, 1, 1, 0, 9,45.00,60.00,Tuesday
7,-8.9
8,1121.6146084510393
9,1.0
10,478.00138373643099
11,1.0
12,478.00138373643099
13,1121.6146084510393
14,-0.2766331198694144
15,19.067769188831343
16,3.834899062258444
17,-2.5727977515689419
18,-1.183426011085727
2,1, 1, 1, 0,10, 0.00,15.00,Tuesday
7,-8.350000000000002
8,1270.0269553388162
9,1.0
10,536.9185644770597
11,1.0
12,536.9185644770597
13,1270.0269553388162
14,-0.07247267310985969
15,20.191002991984058
16,4.873096667504342
17,-1.7925043728790798
18,-0.9782477387600533
2,1, 1, 1, 0,10,15.00,30.00,Tuesday
7,-7.800000000000001
8,1423.952062283466
9,1.0
10,598.0969199229219
11,1.0
12,598.0969199229219
13,1423.952062283466
14,0.1541182264589563
15,21.4481853500887
16,5.926919087241231
17,-1.0172795962446344
18,-0.7609773612156299
2,1, 1, 1, 0,10,30.00,45.00,Tuesday
7,-7.25
8,1526.2141510839877
9,1.0
10,637.6133352894237
11,1.0
12,637.6133352894237
13,1526.2141510839877
14,0.31586049295113335
15,21.511735448317407
16,6.650944088598635
17,-0.5006213467548832
18,-0.5453068993272534
2,1, 1, 1, 0,10,45.00,60.00,Tuesday
7,-6.7
8,1627.1474770805795
9,1.0
10,676.6412284283772
11,1.0
12,676.6412284283772
13,1627.1474770805795
14,0.4909996651851305
15,21.674967700989716
16,7.353166490264243
17,0.009571974387256433
18,-0.3390976133146447
2,1, 1, 1, 0,11, 0.00,15.00,Tuesday
7,-6.275
8,1726.3559791399826
9,1.0
10,715.0112779846514
11,1.0
12,715.0112779846514
13,1726.3559791399826
14,0.7438963594933292
15,23.771915928454154
16,8.131671361535553
17,0.7780999558307258
18,-0.13762907816485837
2,1, 1, 1, 0,11,15.00,30.00,Tuesday
7,-5.85
8,1823.2698116145473
9,1.0
10,752.5077794605232
11,1.0
12,752.5077794605232
13,1823.2698116145473
14,0.9815758807659842
15,25.706591943140915
16,8.893630151624507
17,1.5259501686958288
18,0.06427845827352388
2,1, 1, 1, 0,11,30.00,45.00,Tuesday
7,-5.425
8,1796.527582854471
9,1.0
10,742.5988714321785
11,1.0
12,742.5988714321785
13,1796.527582854471
14,1.1074705772653313
15,25.558355249311889
16,8.97970317655637
17,1.7767917304977346
18,0.25258829408422547
2,1, 1, 1, 0,11,45.00,60.00,Tuesday
7,-5.0
8,1757.2302902542625
9,1.0
10,727.8169025450712
11,1.0
12,727.8169025450712
13,1757.2302902542625
14,1.230551967925203
15,25.32847212197046
16,8.979590194611433
17,1.9860538399084363
18,0.41776960021269129
2,1, 1, 1, 0,12, 0.00,15.00,Tuesday
7,-4.575
8,1688.8915154248735
9,1.0
10,700.3759009170325
11,1.0
12,700.3759009170325
13,1688.8915154248735
14,1.310174034104937
15,24.585348993325355
16,8.812564581772051
17,2.109701241521634
18,0.5558469162017543
2,1, 1, 1, 0,12,15.00,30.00,Tuesday
7,-4.15
8,1637.402928242804
9,1.0
10,681.6705029034473
11,1.0
12,681.6705029034473
13,1637.402928242804
14,1.4060307445047276
15,24.25432488647292
16,8.75021590057662
17,2.3154236015060407
18,0.6732293631883347
2,1, 1, 1, 0,12,30.00,45.00,Tuesday
7,-3.7249999999999998
8,1436.3325328204419
9,1.0
10,602.01865277251
11,1.0
12,602.01865277251
13,1436.3325328204419
14,1.3180349619315333
15,21.225895331565256
16,7.825032422363279
17,1.9160571966077669
18,0.7544571943029957
2,1, 1, 1, 0,12,45.00,60.00,Tuesday
7,-3.3
8,1172.3264399988607
9,1.0
10,493.55004396206007
11,1.0
12,493.55004396206007
13,1172.3264399988607
14,1.1472992311265938
15,17.046876440818076
16,6.431049998834567
17,1.2051870819142324
18,0.7854931018027346
2,1, 1, 1, 0,13, 0.00,15.00,Tuesday
7,-3.0249999999999996
8,965.8676445104285
9,1.0
10,412.335026418112
11,1.0
12,412.335026418112
13,965.8676445104285
14,1.0306813715114032
15,14.201452140469323
16,5.355897677223766
17,0.7079495749586613
18,0.7758861209946214
2,1, 1, 1, 0,13,15.00,30.00,Tuesday
7,-2.75
8,705.6249663298465
9,1.0
10,305.94037763660148
11,1.0
12,305.94037763660148
13,705.6249663298465
14,0.8068702123325301
15,10.027707230454979
16,3.8677187233290057
17,-0.08416425262367966
18,0.7292771381592614
2,1, 1, 1, 0,13,30.00,45.00,Tuesday
7,-2.475
8,643.2935934547763
9,1.0
10,281.0763483922329
11,1.0
12,281.0763483922329
13,643.2935934547763
14,0.7944318499289584
15,9.513746930852273
16,3.580766239909508
17,-0.032301029722475508
18,0.6749175130819108
2,1, 1, 1, 0,13,45.00,60.00,Tuesday
7,-2.2
8,582.2666563732777
9,1.0
10,256.7721209415886
11,1.0
12,256.7721209415886
13,582.2666563732777
14,0.7674488377656082
15,8.905740241280391
16,3.326746765115331
17,0.03367690607296936
18,0.6314076433035708
2,1, 1, 1, 0,14, 0.00,15.00,Tuesday
7,-1.9250000000000003
8,475.0797112458438
9,1.0
10,210.73276284570657
11,1.0
12,210.73276284570657
13,475.0797112458438
14,0.6800174658566142
15,7.356615415761736
16,2.7177241106143699
17,-0.16826918561162075
18,0.5946481992829542
2,1, 1, 1, 0,14,15.00,30.00,Tuesday
7,-1.6500000000000002
8,421.0810450664391
9,1.0
10,189.38488290342594
11,1.0
12,189.38488290342594
13,421.0810450664391
14,0.6648988192919116
15,6.948665933570386
16,2.4739528774691168
17,-0.12224544216485356
18,0.5643176070854712
2,1, 1, 1, 0,14,30.00,45.00,Tuesday
7,-1.375
8,401.774828289982
9,1.0
10,179.3940297802914
11,1.0
12,179.3940297802914
13,401.774828289982
14,0.6724144080269147
15,7.066912531894999
16,2.436081057121669
17,0.06296995745208278
18,0.5417484187487102
2,1, 1, 1, 0,14,45.00,60.00,Tuesday
7,-1.1
8,382.12108825797437
9,1.0
10,169.43349014176136
11,1.0
12,169.43349014176136
13,382.12108825797437
14,0.6780670925136946
15,7.16300173634997
16,2.3954535093796496
17,0.24442328519756985
18,0.5269436503557519
2,1, 1, 1, 0,15, 0.00,15.00,Tuesday
7,-1.1
8,401.91385134140628
9,1.0
10,178.15692317953907
11,1.0
12,178.15692317953907
13,401.91385134140628
14,0.7226013640899107
15,7.975767233393671
16,2.5519844964410369
17,0.39070280232726875
18,0.5217214854318576
2,1, 1, 1, 0,15,15.00,30.00,Tuesday
7,-1.1
8,377.40659100319177
9,1.0
10,166.40516310952945
11,1.0
12,166.40516310952945
13,377.40659100319177
14,0.6945771685081024
15,7.611990211490573
16,2.3825225595500116
17,0.2913643374741923
18,0.5199422722094408
2,1, 1, 1, 0,15,30.00,45.00,Tuesday
7,-1.1
8,317.75596371098598
9,1.0
10,140.8967369711617
11,1.0
12,140.8967369711617
13,317.75596371098598
14,0.6149556482743551
15,6.403392028795894
16,1.9548899856901017
17,-0.016499930251939078
18,0.5124665515411382
2,1, 1, 1, 0,15,45.00,60.00,Tuesday
7,-1.1
8,261.0934712331853
9,1.0
10,116.57355796743004
11,1.0
12,116.57355796743004
13,261.0934712331853
14,0.5351084346815507
15,5.190637568245009
16,1.5241271825674403
17,-0.33157356653424588
18,0.4919304441195859
2,1, 1, 1, 0,16, 0.00,15.00,Tuesday
7,-1.1
8,206.91088787927186
9,1.0
10,93.14939272689483
11,1.0
12,93.14939272689483
13,206.91088787927186
14,0.45634622946051686
15,4.1290016879277939
16,1.1231856783329022
17,-0.5856422060393243
18,0.4586596786504636
2,1, 1, 1, 0,16,15.00,30.00,Tuesday
7,-1.1
8,128.24394957662509
9,1.0
10,57.94047897402063
11,1.0
12,57.94047897402063
13,128.24394957662509
14,0.29219373064703549
15,1.9824032978331597
16,0.4609894354369999
17,-1.0592218732128345
18,0.4107082807962018
2,1, 1, 1, 0,16,30.00,45.00,Tuesday
7,-1.1
8,99.28426277067597
9,1.0
10,45.38251793443488
11,1.0
12,45.38251793443488
13,99.28426277067597
14,0.25024641281213408
15,1.374441159822096
16,0.19233737267802554
17,-1.2193305988508315
18,0.35530265083917375
2,1, 1, 1, 0,16,45.00,60.00,Tuesday
7,-1.1
8,69.22193753677786
9,1.0
10,32.02625108222755
11,1.0
12,32.02625108222755
13,69.22193753677786
14,0.16912942838388185
15,0.49589206874710947
16,-0.07307586481738326
17,-1.4016928414013706
18,0.2977053306280285
2,1, 1, 1, 0,17, 0.00,15.00,Tuesday
7,-1.1
8,37.939612009912227
9,1.0
10,17.762198626050539
11,1.0
12,17.762198626050539
13,37.939612009912227
14,0.05943873524453647
15,-0.7740528589720583
16,-0.4030925518211461
17,-1.70351368356296
18,0.2352133003533446
2,1, 1, 1, 0,17,15.00,30.00,Tuesday
7,-1.1
8,0.0
9,0.0
10,0.0
11,0.0
12,0.0
13,0.0
14,-0.09744543663331587
15,-2.618944902141155
16,-0.7936955404101695
17,-2.045124631547651
18,0.15796409098200188
2,1, 1, 1, 0,17,30.00,45.00,Tuesday
7,-1.1
8,0.0
9,0.0
10,0.0
11,0.0
12,0.0
13,0.0
14,-0.13299187782848743
15,-2.762149624692197
16,-0.87684598553858
17,-2.1193196631450066
18,0.07602199091979974
2,1, 1, 1, 0,17,45.00,60.00,Tuesday
7,-1.1
8,0.0
9,0.0
10,0.0
11,0.0
12,0.0
13,0.0
14,-0.18617855493856429
15,-2.967976508021562
16,-0.9351861320894273
17,-2.1939570158539256
18,0.0012719950059726603
2,1, 1, 1, 0,18, 0.00,15.00,Tuesday
7,-1.25
8,0.0
9,0.0
10,0.0
11,0.0
12,0.0
13,0.0
14,-0.22934132670285413
15,-3.113950833650232
16,-1.018127267245518
17,-2.324798188132263
18,-0.06021984416336164
2,1, 1, 1, 0,18,15.00,30.00,Tuesday
7,-1.4
8,0.0
9,0.0
10,0.0
11,0.0
12,0.0
13,0.0
14,-0.2681237252397771
15,-3.2663891914571385
16,-1.091174911799385
17,-2.4464964445619445
18,-0.10913285112969809
2,1, 1, 1, 0,18,30.00,45.00,Tuesday
7,-1.5499999999999999
8,0.0
9,0.0
10,0.0
11,0.0
12,0.0
13,0.0
14,-0.3037527371001089
15,-3.418116590725736
16,-1.1591852054495462
17,-2.561210589504526
18,-0.1490688382114987
2,1, 1, 1, 0,18,45.00,60.00,Tuesday
7,-1.7
8,0.0
9,0.0
10,0.0
11,0.0
12,0.0
13,0.0
14,-0.3366866489814204
15,-3.5698903847966569
16,-1.2281718373318427
17,-2.6871336611172298
18,-0.1834144219016301
2,1, 1, 1, 0,19, 0.00,15.00,Tuesday
7,-1.825
8,0.0
9,0.0
10,0.0
11,0.0
12,0.0
13,0.0
14,-0.33920574685797097
15,-3.399849343038295
16,-1.2471017285319022
17,-2.6990370807582169
18,-0.21054573302388714
2,1, 1, 1, 0,19,15.00,30.00,Tuesday
7,-1.9500000000000002
8,0.0
9,0.0
10,0.0
11,0.0
12,0.0
13,0.0
14,-0.34234799260706447
15,-3.3138858831825068
16,-1.2657969205912992
17,-2.724117382568977
18,-0.22927166951567125
2,1, 1, 1, 0,19,30.00,45.00,Tuesday
7,-2.075
8,0.0
9,0.0
10,0.0
11,0.0
12,0.0
13,0.0
14,-0.350514080754015
15,-3.3824616076422617
16,-1.3041148003836725
17,-2.8000546144465376
18,-0.24152305253068144
2,1, 1, 1, 0,19,45.00,60.00,Tuesday
7,-2.2
8,0.0
9,0.0
10,0.0
11,0.0
12,0.0
13,0.0
14,-0.3552197400462463
15,-3.3431670590025499
16,-1.3242710348997662
17,-2.844717747773643
18,-0.2502607219866213
2,1, 1, 1, 0,20, 0.00,15.00,Tuesday
7,-1.9250000000000003
8,0.0
9,0.0
10,0.0
11,0.0
12,0.0
13,0.0
14,-0.34530468075652739
15,-3.037620052912494
16,-1.2308202169936067
17,-2.626777305498422
18,-0.25566727290123567
2,1, 1, 1, 0,20,15.00,30.00,Tuesday
7,-1.6500000000000002
8,0.0
9,0.0
10,0.0
11,0.0
12,0.0
13,0.0
14,-0.3324599379468833
15,-2.735424846482364
16,-1.1386234050527265
17,-2.4008082944797026
18,-0.25755486087650816
2,1, 1, 1, 0,20,30.00,45.00,Tuesday
7,-1.375
8,0.0
9,0.0
10,0.0
11,0.0
12,0.0
13,0.0
14,-0.31777169180870948
15,-2.4348069498370026
16,-1.0438966513004289
17,-2.172399911568334
18,-0.25628419497205826
2,1, 1, 1, 0,20,45.00,60.00,Tuesday
7,-1.1
8,0.0
9,0.0
10,0.0
11,0.0
12,0.0
13,0.0
14,-0.3002347224630734
15,-2.135624599201319
16,-0.9468027222166029
17,-1.9419940368208586
18,-0.2524213343338481
2,1, 1, 1, 0,21, 0.00,15.00,Tuesday
7,-1.25
8,0.0
9,0.0
10,0.0
11,0.0
12,0.0
13,0.0
14,-0.3323651335987552
15,-2.4348988349734936
16,-1.0283701287788745
17,-2.1057947900890214
18,-0.25214336324663808
2,1, 1, 1, 0,21,15.00,30.00,Tuesday
7,-1.4
8,0.0
9,0.0
10,0.0
11,0.0
12,0.0
13,0.0
14,-0.36679013412222929
15,-2.6607210514018915
16,-1.0958595289419009
17,-2.2477330691851877
18,-0.26068811325426685
2,1, 1, 1, 0,21,30.00,45.00,Tuesday
7,-1.5499999999999999
8,0.0
9,0.0
10,0.0
11,0.0
12,0.0
13,0.0
14,-0.414267046940883
15,-3.028002013784504
16,-1.1870529476318553
17,-2.433178868927598
18,-0.280271825336885
2,1, 1, 1, 0,21,45.00,60.00,Tuesday
7,-1.7
8,0.0
9,0.0
10,0.0
11,0.0
12,0.0
13,0.0
14,-0.46660495010348937
15,-3.5059228724751709
16,-1.2904318878512414
17,-2.650783647530943
18,-0.30968557312670305
2,1, 1, 1, 0,22, 0.00,15.00,Tuesday
7,-1.5499999999999999
8,0.0
9,0.0
10,0.0
11,0.0
12,0.0
13,0.0
14,-0.4393830947034461
15,-2.9871895318985919
16,-1.2152425201516053
17,-2.4534218823557696
18,-0.33480998009948068
2,1, 1, 1, 0,22,15.00,30.00,Tuesday
7,-1.4
8,0.0
9,0.0
10,0.0
11,0.0
12,0.0
13,0.0
14,-0.41995412837333548
15,-2.635926863419801
16,-1.1365874801576866
17,-2.2680922704234947
18,-0.3474023503215273
2,1, 1, 1, 0,22,30.00,45.00,Tuesday
7,-1.25
8,0.0
9,0.0
10,0.0
11,0.0
12,0.0
13,0.0
14,-0.403871046447523
15,-2.4063440480426765
16,-1.075039454142825
17,-2.122045879109578
18,-0.34887109112656025
2,1, 1, 1, 0,22,45.00,60.00,Tuesday
7,-1.1
8,0.0
9,0.0
10,0.0
11,0.0
12,0.0
13,0.0
14,-0.383983834766426
15,-2.1066484018956
16,-0.992379076497059
17,-1.941061353241139
18,-0.3437529201254951
2,1, 1, 1, 0,23, 0.00,15.00,Tuesday
7,-1.25
8,0.0
9,0.0
10,0.0
11,0.0
12,0.0
13,0.0
14,-0.4173045176421408
15,-2.4110864519729917
16,-1.1105849351210964
17,-2.189911421941815
18,-0.3416141301130401
2,1, 1, 1, 0,23,15.00,30.00,Tuesday
7,-1.4
8,0.0
9,0.0
10,0.0
11,0.0
12,0.0
13,0.0
14,-0.4482821915640143
15,-2.7155282439710626
16,-1.232977890733423
17,-2.4597958868658909
18,-0.3485020287563207
2,1, 1, 1, 0,23,30.00,45.00,Tuesday
7,-1.5499999999999999
8,0.0
9,0.0
10,0.0
11,0.0
12,0.0
13,0.0
14,-0.48402136220207978
15,-3.020592837101209
16,-1.3551846874235026
17,-2.730075614623388
18,-0.364901385539516
2,1, 1, 1, 0,23,45.00,60.00,Tuesday
7,-1.7
8,0.0
9,0.0
10,0.0
11,0.0
12,0.0
13,0.0
14,-0.5219582355461238
15,-3.3259348609390635
16,-1.4801507690185645
17,-3.0012269294730347
18,-0.3887290516708832
2,1, 1, 1, 0,24, 0.00,15.00,Tuesday
7,-1.7
8,0.0
9,0.0
10,0.0
11,0.0
12,0.0
13,0.0
14,-0.5406554650169424
15,-3.3793861642143194
16,-1.5165020243258028
17,-3.0577543856351214
18,-0.41448028693711305
2,1, 1, 1, 0,24,15.00,30.00,Tuesday
7,-1.7
8,0.0
9,0.0
10,0.0
11,0.0
12,0.0
13,0.0
14,-0.5624551639777006
15,-3.4337865141588139
16,-1.5504820221548244
17,-3.112519490093689
18,-0.43871355338856868
2,1, 1, 1, 0,24,30.00,45.00,Tuesday
7,-1.7
8,0.0
9,0.0
10,0.0
11,0.0
12,0.0
13,0.0
14,-0.5838101262133049
15,-3.4880493980248654
16,-1.585166017375741
17,-3.1674933308829624
18,-0.4608627437470736
2,1, 1, 1, 0,24,45.00,60.00,Tuesday
7,-1.7
8,0.0
9,0.0
10,0.0
11,0.0
12,0.0
13,0.0
14,-0.6046601582917649
15,-3.5423069869630057
16,-1.6193790178647305
17,-3.2222323166905086
18,-0.48156618556909966
End of Data
 Number of Records Written=        1152
