Program Version,EnergyPlus, Version 9.5.0-de239b2e5f, YMD=2022.11.22 15:34
1,5,Environment Title[],Latitude[deg],Longitude[deg],Time Zone[],Elevation[m]
2,8,Day of Simulation[],Month[],Day of Month[],DST Indicator[1=yes 0=no],Hour[],StartMinute[],EndMinute[],DayType
3,5,Cumulative Day of Simulation[],Month[],Day of Month[],DST Indicator[1=yes 0=no],DayType  ! When Daily Report Variables Requested
4,2,Cumulative Days of Simulation[],Month[]  ! When Monthly Report Variables Requested
5,1,Cumulative Days of Simulation[] ! When Run Period Report Variables Requested
6,1,Calendar Year of Simulation[] ! When Annual Report Variables Requested
7,1,Environment,Site Outdoor Air Drybulb Temperature [C] !TimeStep
8,1,ZONE ONE,Zone Windows Total Transmitted Solar Radiation Rate [W] !TimeStep
9,1,ZN001:WALL001,Surface Outside Face Sunlit Fraction [] !TimeStep
10,1,ZN001:WALL001,Surface Outside Face Incident Solar Radiation Rate per Area [W/m2] !TimeStep
11,1,ZN001:WALL001:WIN001,Surface Outside Face Sunlit Fraction [] !TimeStep
12,1,ZN001:WALL001:WIN001,Surface Outside Face Incident Solar Radiation Rate per Area [W/m2] !TimeStep
13,1,ZN001:WALL001:WIN001,Surface Window Transmitted Solar Radiation Rate [W] !TimeStep
14,1,ZN001:WALL001,Surface Inside Face Temperature [C] !TimeStep
15,1,ZN001:WALL001,Surface Outside Face Temperature [C] !TimeStep
16,1,ZN001:WALL001:WIN001,Surface Inside Face Temperature [C] !TimeStep
17,1,ZN001:WALL001:WIN001,Surface Outside Face Temperature [C] !TimeStep
18,1,ZONE ONE,Zone Mean Air Temperature [C] !TimeStep
End of Data Dictionary
1,RUN PERIOD 1,  41.98, -87.92,  -6.00, 201.00
2,1, 1, 1, 0, 1, 0.00,15.00,Tuesday
7,-4.324999999999999
8,0.0
9,0.0
10,0.0
11,0.0
12,0.0
13,0.0
14,8.2436573101209
15,-5.853902404206017
16,4.687100189388275
17,-3.3426051435303067
18,8.747574779896303
2,1, 1, 1, 0, 1,15.00,30.00,Tuesday
7,-6.949999999999999
8,0.0
9,0.0
10,0.0
11,0.0
12,0.0
13,0.0
14,8.052622735197917
15,-8.320989584095308
16,3.95756996206228
17,-5.329696086023091
18,8.635185585475718
2,1, 1, 1, 0, 1,30.00,45.00,Tuesday
7,-9.575
8,0.0
9,0.0
10,0.0
11,0.0
12,0.0
13,0.0
14,7.8399678661251219
15,-10.79607140834571
16,3.220526055766072
17,-7.322679043160861
18,8.489665313458828
2,1, 1, 1, 0, 1,45.00,60.00,Tuesday
7,-12.2
8,0.0
9,0.0
10,0.0
11,0.0
12,0.0
13,0.0
14,7.610520333251428
15,-13.277802583836035
16,2.468109167992111
17,-9.323482626178987
18,8.3217216126006
2,1, 1, 1, 0, 2, 0.00,15.00,Tuesday
7,-12.075
8,0.0
9,0.0
10,0.0
11,0.0
12,0.0
13,0.0
14,7.529145831100607
15,-13.078566294359505
16,2.413286833343818
17,-9.173357852029085
18,8.171293004196246
2,1, 1, 1, 0, 2,15.00,30.00,Tuesday
7,-11.95
8,0.0
9,0.0
10,0.0
11,0.0
12,0.0
13,0.0
14,7.435136052096661
15,-12.901730965504433
16,2.3814824356629744
17,-9.04516073050047
18,8.055441232242924
2,1, 1, 1, 0, 2,30.00,45.00,Tuesday
7,-11.825
8,0.0
9,0.0
10,0.0
11,0.0
12,0.0
13,0.0
14,7.359621270803209
15,-12.72371130455384
16,2.361064814698807
17,-8.926031874035516
18,7.967500706936425
2,1, 1, 1, 0, 2,45.00,60.00,Tuesday
7,-11.7
8,0.0
9,0.0
10,0.0
11,0.0
12,0.0
13,0.0
14,7.295715229517659
15,-12.545782799696897
16,2.3451617267821804
17,-8.783267418082005
18,7.895221112907974
2,1, 1, 1, 0, 3, 0.00,15.00,Tuesday
7,-11.549999999999999
8,0.0
9,0.0
10,0.0
11,0.0
12,0.0
13,0.0
14,7.233835300383701
15,-12.41852403182333
16,2.346267936228969
17,-8.631792156624329
18,7.829335993893706
2,1, 1, 1, 0, 3,15.00,30.00,Tuesday
7,-11.399999999999999
8,0.0
9,0.0
10,0.0
11,0.0
12,0.0
13,0.0
14,7.17514708700036
15,-12.292582846414387
16,2.353825825855324
17,-8.490309771950877
18,7.7656157122705
2,1, 1, 1, 0, 3,30.00,45.00,Tuesday
7,-11.25
8,0.0
9,0.0
10,0.0
11,0.0
12,0.0
13,0.0
14,7.117235814595278
15,-12.168099077091583
16,2.354364630438738
17,-8.328303619064514
18,7.7028116386461369
2,1, 1, 1, 0, 3,45.00,60.00,Tuesday
7,-11.1
8,0.0
9,0.0
10,0.0
11,0.0
12,0.0
13,0.0
14,7.060002989236048
15,-12.04513349502915
16,2.363943100403276
17,-8.185945654820444
18,7.64092431859952
2,1, 1, 1, 0, 4, 0.00,15.00,Tuesday
7,-11.1
8,0.0
9,0.0
10,0.0
11,0.0
12,0.0
13,0.0
14,6.998607010000208
15,-12.0185628945761
16,2.2921484240564498
17,-8.235159724135997
18,7.578613479003872
2,1, 1, 1, 0, 4,15.00,30.00,Tuesday
7,-11.1
8,0.0
9,0.0
10,0.0
11,0.0
12,0.0
13,0.0
14,6.937601072535545
15,-11.993022683851846
16,2.2285063042229469
17,-8.290827295079453
18,7.5154306647901809
2,1, 1, 1, 0, 4,30.00,45.00,Tuesday
7,-11.1
8,0.0
9,0.0
10,0.0
11,0.0
12,0.0
13,0.0
14,6.8762413193673119
15,-11.968931164047016
16,2.165958878220181
17,-8.346182082620544
18,7.45165537266007
2,1, 1, 1, 0, 4,45.00,60.00,Tuesday
7,-11.1
8,0.0
9,0.0
10,0.0
11,0.0
12,0.0
13,0.0
14,6.814719576709904
15,-11.94615614602704
16,2.103737539672238
17,-8.400372931126868
18,7.387678103226248
2,1, 1, 1, 0, 5, 0.00,15.00,Tuesday
7,-10.975
8,0.0
9,0.0
10,0.0
11,0.0
12,0.0
13,0.0
14,6.75897353316877
15,-11.824438562911677
16,2.092911925834983
17,-8.32428161971336
18,7.32504890280283
2,1, 1, 1, 0, 5,15.00,30.00,Tuesday
7,-10.85
8,0.0
9,0.0
10,0.0
11,0.0
12,0.0
13,0.0
14,6.703537719297141
15,-11.702772300776742
16,2.0786856451697988
17,-8.240053802035846
18,7.264328045791643
2,1, 1, 1, 0, 5,30.00,45.00,Tuesday
7,-10.725
8,0.0
9,0.0
10,0.0
11,0.0
12,0.0
13,0.0
14,6.649302256091455
15,-11.581079193083588
16,2.064637537161275
17,-8.15474947127018
18,7.205198410555709
2,1, 1, 1, 0, 5,45.00,60.00,Tuesday
7,-10.6
8,0.0
9,0.0
10,0.0
11,0.0
12,0.0
13,0.0
14,6.5960461101167049
15,-11.459394643431116
16,2.0514481397761417
17,-8.069091562844165
18,7.14718686763396
2,1, 1, 1, 0, 6, 0.00,15.00,Tuesday
7,-10.6
8,0.0
9,0.0
10,0.0
11,0.0
12,0.0
13,0.0
14,6.535939265998571
15,-11.460550049950357
16,2.002578194180842
17,-8.07524085808791
18,7.088521200165357
2,1, 1, 1, 0, 6,15.00,30.00,Tuesday
7,-10.6
8,0.0
9,0.0
10,0.0
11,0.0
12,0.0
13,0.0
14,6.476489444243168
15,-11.46166636004841
16,1.955467659942883
17,-8.08737359101599
18,7.0284688690467169
2,1, 1, 1, 0, 6,30.00,45.00,Tuesday
7,-10.6
8,0.0
9,0.0
10,0.0
11,0.0
12,0.0
13,0.0
14,6.416492154677443
15,-11.462825288365986
16,1.9086377392992518
17,-8.100131470274278
18,6.967369301392752
2,1, 1, 1, 0, 6,45.00,60.00,Tuesday
7,-10.6
8,0.0
9,0.0
10,0.0
11,0.0
12,0.0
13,0.0
14,6.35620525274612
15,-11.463980760942452
16,1.8614858930355923
17,-8.113074995414536
18,6.905789534124544
2,1, 1, 1, 0, 7, 0.00,15.00,Tuesday
7,-10.6
8,0.0
9,0.0
10,0.0
11,0.0
12,0.0
13,0.0
14,6.2977351643938859
15,-11.441967791165189
16,1.800548333862821
17,-8.160340144423913
18,6.844300970828288
2,1, 1, 1, 0, 7,15.00,30.00,Tuesday
7,-10.6
8,0.0
9,0.0
10,0.0
11,0.0
12,0.0
13,0.0
14,6.239167646287838
15,-11.421099798630835
16,1.742251413131612
17,-8.208157798095045
18,6.783219821920977
2,1, 1, 1, 0, 7,30.00,45.00,Tuesday
7,-10.6
8,0.0
9,0.0
10,0.0
11,0.0
12,0.0
13,0.0
14,6.180876911580784
15,-11.40129706386745
16,1.6846633427534812
17,-8.254971957339422
18,6.722558903268466
2,1, 1, 1, 0, 7,45.00,60.00,Tuesday
7,-10.6
8,0.0
9,0.0
10,0.0
11,0.0
12,0.0
13,0.0
14,6.122881336186187
15,-11.382495482665285
16,1.627737110894941
17,-8.300531286922308
18,6.66224429913591
2,1, 1, 1, 0, 8, 0.00,15.00,Tuesday
7,-10.45
8,0.0
9,0.0
10,0.0
11,0.0
12,0.0
13,0.0
14,6.064686269085426
15,-11.332567781221768
16,1.6125903625595584
17,-8.241780285263986
18,6.602249669536379
2,1, 1, 1, 0, 8,15.00,30.00,Tuesday
7,-10.3
8,215.5879980222353
9,1.0
10,22.819555959623899
11,1.0
12,22.819555959623899
13,215.5879980222353
14,6.1385352406339479
15,-9.658431736474144
16,1.8836220315499759
17,-7.921076715695392
18,6.563404218187807
2,1, 1, 1, 0, 8,30.00,45.00,Tuesday
7,-10.15
8,1058.5392312119832
9,1.0
10,109.75755355442667
11,1.0
12,109.75755355442667
13,1058.5392312119832
14,6.574547021594284
15,-3.2818155826660218
16,3.0275163292197364
17,-6.882566653315735
18,6.603992454838978
2,1, 1, 1, 0, 8,45.00,60.00,Tuesday
7,-10.0
8,1924.8399544048012
9,1.0
10,195.8764694434918
11,1.0
12,195.8764694434918
13,1924.8399544048012
14,7.142334652154554
15,3.2015728141594419
16,4.268201432526951
17,-5.830230747093196
18,6.731118613508051
2,1, 1, 1, 0, 9, 0.00,15.00,Tuesday
7,-9.725
8,2788.1568045040946
9,1.0
10,278.97248314719988
11,1.0
12,278.97248314719988
13,2788.1568045040946
14,7.6029570665038819
15,8.369183350900397
16,5.496340384063387
17,-4.912638975496293
18,6.919408109188363
2,1, 1, 1, 0, 9,15.00,30.00,Tuesday
7,-9.45
8,3698.191694964431
9,1.0
10,364.91995730569456
11,1.0
12,364.91995730569456
13,3698.191694964431
14,8.088495984904567
15,13.447213476083443
16,6.83510225008115
17,-3.9702447520226089
18,7.161238839294032
2,1, 1, 1, 0, 9,30.00,45.00,Tuesday
7,-9.175
8,4300.2673206835229
9,1.0
10,420.35879993239237
11,1.0
12,420.35879993239237
13,4300.2673206835229
14,8.448766907703523
15,16.203597834474566
16,7.779098473129693
17,-3.366611364672508
18,7.429418038042001
2,1, 1, 1, 0, 9,45.00,60.00,Tuesday
7,-8.9
8,4925.271017558337
9,1.0
10,478.00138373643099
11,1.0
12,478.00138373643099
13,4925.271017558337
14,8.865143335373457
15,19.197925623375356
16,8.693717776502752
17,-2.7591769990880268
18,7.711558657997347
2,1, 1, 1, 0,10, 0.00,15.00,Tuesday
7,-8.350000000000002
8,5563.47927965646
9,1.0
10,536.9185644770597
11,1.0
12,536.9185644770597
13,5563.47927965646
14,9.231901671647588
15,20.312129160669668
16,9.623550327497469
17,-2.1395958000948669
18,8.00855714701935
2,1, 1, 1, 0,10,15.00,30.00,Tuesday
7,-7.800000000000001
8,6223.735720388039
9,1.0
10,598.0969199229219
11,1.0
12,598.0969199229219
13,6223.735720388039
14,9.63079249143093
15,21.562593379132488
16,10.567460209247088
17,-1.5153068273239115
18,8.149202976975829
2,1, 1, 1, 0,10,30.00,45.00,Tuesday
7,-7.25
8,6656.871608685562
9,1.0
10,637.6133352894237
11,1.0
12,637.6133352894237
13,6656.871608685562
14,9.90454849068287
15,21.618692801088156
16,11.2419225072382
17,-1.079005428488017
18,8.42092444598939
2,1, 1, 1, 0,10,45.00,60.00,Tuesday
7,-6.7
8,7083.627635407371
9,1.0
10,676.6412284283772
11,1.0
12,676.6412284283772
13,7083.627635407371
14,10.170372531564855
15,21.77580103121212
16,11.861747757946432
17,-0.6479907048737914
18,8.622737517230793
2,1, 1, 1, 0,11, 0.00,15.00,Tuesday
7,-6.275
8,7502.619881932496
9,1.0
10,715.0112779846514
11,1.0
12,715.0112779846514
13,7502.619881932496
14,10.590611362995134
15,23.87551387432423
16,12.573425721080298
17,0.025479395673528417
18,9.087500553140707
2,1, 1, 1, 0,11,15.00,30.00,Tuesday
7,-5.85
8,7911.749570952164
9,1.0
10,752.5077794605232
11,1.0
12,752.5077794605232
13,7911.749570952164
14,11.063982885852053
15,25.812840487653827
16,13.333287118018916
17,0.6798606352670618
18,9.521722618350783
2,1, 1, 1, 0,11,30.00,45.00,Tuesday
7,-5.425
8,7790.156876744835
9,1.0
10,742.5988714321785
11,1.0
12,742.5988714321785
13,7790.156876744835
14,11.355166182376152
15,25.66489787807782
16,13.595122563536393
17,1.0053977693448815
18,9.927231868379602
2,1, 1, 1, 0,11,45.00,60.00,Tuesday
7,-5.0
8,7616.415097398768
9,1.0
10,727.8169025450712
11,1.0
12,727.8169025450712
13,7616.415097398768
14,11.633476418784693
15,25.43683759160317
16,13.765035678069694
17,1.2854791258956198
18,10.287098156160742
2,1, 1, 1, 0,12, 0.00,15.00,Tuesday
7,-4.575
8,7317.63187899619
9,1.0
10,700.3759009170325
11,1.0
12,700.3759009170325
13,7317.63187899619
14,11.834100867605802
15,24.695020943776976
16,13.79593707140043
17,1.5110881833954864
18,10.597092665597789
2,1, 1, 1, 0,12,15.00,30.00,Tuesday
7,-4.15
8,7096.045470548525
9,1.0
10,681.6705029034473
11,1.0
12,681.6705029034473
13,7096.045470548525
14,12.054842560362719
15,24.365406464044708
16,13.893818019040055
17,1.79967871183743
18,10.869837459659723
2,1, 1, 1, 0,12,30.00,45.00,Tuesday
7,-3.7249999999999998
8,6229.736928425406
9,1.0
10,602.01865277251
11,1.0
12,602.01865277251
13,6229.736928425406
14,11.968602606951509
15,21.336730403822533
16,13.318591353501006
17,1.6468381853437678
18,11.080389309401689
2,1, 1, 1, 0,12,45.00,60.00,Tuesday
7,-3.3
8,5087.904404183855
9,1.0
10,493.55004396206007
11,1.0
12,493.55004396206007
13,5087.904404183855
14,11.774823562411286
15,17.159724885928936
16,12.305168133729979
17,1.249782978280507
18,11.196243250091016
2,1, 1, 1, 0,13, 0.00,15.00,Tuesday
7,-3.0249999999999996
8,4201.063393949559
9,1.0
10,412.335026418112
11,1.0
12,412.335026418112
13,4201.063393949559
14,11.641922835365602
15,14.316580876381533
16,11.485154177216487
17,0.9912705203295786
18,11.236405248521395
2,1, 1, 1, 0,13,15.00,30.00,Tuesday
7,-2.75
8,3076.892122430221
9,1.0
10,305.94037763660148
11,1.0
12,305.94037763660148
13,3076.892122430221
14,11.308524032298492
15,10.144352101464876
16,10.313643353328758
17,0.5150629933432356
18,11.211811209686612
2,1, 1, 1, 0,13,30.00,45.00,Tuesday
7,-2.475
8,2809.0935899127655
9,1.0
10,281.0763483922329
11,1.0
12,281.0763483922329
13,2809.0935899127655
14,11.28644258590951
15,9.633482916085037
16,10.073155219928822
17,0.6467311356635719
18,11.165024553546268
2,1, 1, 1, 0,13,45.00,60.00,Tuesday
7,-2.2
8,2546.8736709552365
9,1.0
10,256.7721209415886
11,1.0
12,256.7721209415886
13,2546.8736709552365
14,11.245869061489941
15,9.026955552177244
16,9.915744398528034
17,0.8059677189728518
18,11.124840564158724
2,1, 1, 1, 0,14, 0.00,15.00,Tuesday
7,-1.9250000000000003
8,2080.536760270814
9,1.0
10,210.73276284570657
11,1.0
12,210.73276284570657
13,2080.536760270814
14,11.085234023665178
15,7.481004345515984
16,9.485089190567237
17,0.7693000570238269
18,11.085421441336294
2,1, 1, 1, 0,14,15.00,30.00,Tuesday
7,-1.6500000000000002
8,1848.1882299855229
9,1.0
10,189.38488290342594
11,1.0
12,189.38488290342594
13,1848.1882299855229
14,11.039481704139265
15,7.0716647247222019
16,9.305278437260825
17,0.913880115209281
18,11.047896487568299
2,1, 1, 1, 0,14,30.00,45.00,Tuesday
7,-1.375
8,1762.648528253172
9,1.0
10,179.3940297802914
11,1.0
12,179.3940297802914
13,1762.648528253172
14,11.025552893207582
15,7.202451344476125
16,9.289937692780427
17,1.156733508016373
18,11.014987773685567
2,1, 1, 1, 0,14,45.00,60.00,Tuesday
7,-1.1
8,1676.1315823352277
9,1.0
10,169.43349014176136
11,1.0
12,169.43349014176136
13,1676.1315823352277
14,11.0070849459591
15,7.302827373671213
16,9.267639779463253
17,1.3973574389584656
18,10.986383377579236
2,1, 1, 1, 0,15, 0.00,15.00,Tuesday
7,-1.1
8,1764.2336451764168
9,1.0
10,178.15692317953907
11,1.0
12,178.15692317953907
13,1764.2336451764168
14,11.075161126715589
15,8.122987903501704
16,9.38244579196305
17,1.5381302201614063
18,10.966846098601474
2,1, 1, 1, 0,15,15.00,30.00,Tuesday
7,-1.1
8,1657.44905719483
9,1.0
10,166.40516310952945
11,1.0
12,166.40516310952945
13,1657.44905719483
14,11.014507375326
15,7.760752987547682
16,9.273892504454011
17,1.5064649392583079
18,10.949532435107244
2,1, 1, 1, 0,15,30.00,45.00,Tuesday
7,-1.1
8,1397.5312645024297
9,1.0
10,140.8967369711617
11,1.0
12,140.8967369711617
13,1397.5312645024297
14,10.882143020468
15,6.555626155922392
16,8.956953361856506
17,1.3268588788506577
18,10.922351183377688
2,1, 1, 1, 0,15,45.00,60.00,Tuesday
7,-1.1
8,1150.0543343484979
9,1.0
10,116.57355796743004
11,1.0
12,116.57355796743004
13,1150.0543343484979
14,10.743815298300954
15,5.348794999254297
16,8.635295491135708
17,1.1405252127852919
18,10.878574333904315
2,1, 1, 1, 0,16, 0.00,15.00,Tuesday
7,-1.1
8,912.7487358563033
9,1.0
10,93.14939272689483
11,1.0
12,93.14939272689483
13,912.7487358563033
14,10.625651780694512
15,4.303160150204966
16,8.354388771229992
17,1.0438451187676492
18,10.816656136837798
2,1, 1, 1, 0,16,15.00,30.00,Tuesday
7,-1.1
8,566.636069103818
9,1.0
10,57.94047897402063
11,1.0
12,57.94047897402063
13,566.636069103818
14,10.40833049712064
15,2.183369013191473
16,7.913937254352334
17,0.8151672415319808
18,10.728829121006184
2,1, 1, 1, 0,16,30.00,45.00,Tuesday
7,-1.1
8,439.3280485110057
9,1.0
10,45.38251793443488
11,1.0
12,45.38251793443488
13,439.3280485110057
14,10.322621821460116
15,1.5788457321076098
16,7.725772342885477
17,0.8117393853923431
18,10.628995631501967
2,1, 1, 1, 0,16,45.00,60.00,Tuesday
7,-1.1
8,306.6800834820858
9,1.0
10,32.02625108222755
11,1.0
12,32.02625108222755
13,306.6800834820858
14,10.194835789499918
15,0.721946485078696
16,7.554418362207969
17,0.8089482489044713
18,10.530135826841694
2,1, 1, 1, 0,17, 0.00,15.00,Tuesday
7,-1.1
8,168.21359625367695
9,1.0
10,17.762198626050539
11,1.0
12,17.762198626050539
13,168.21359625367695
14,10.042460887817472
15,-0.5205134822277264
16,7.324621904005539
17,0.7015166372463
18,10.430613145785375
2,1, 1, 1, 0,17,15.00,30.00,Tuesday
7,-1.1
8,0.0
9,0.0
10,0.0
11,0.0
12,0.0
13,0.0
14,9.838188459126912
15,-2.3536898559442829
16,7.003780319281304
17,0.4477237146757602
18,10.316826351895856
2,1, 1, 1, 0,17,30.00,45.00,Tuesday
7,-1.1
8,0.0
9,0.0
10,0.0
11,0.0
12,0.0
13,0.0
14,9.773757793481487
15,-2.4852736236868329
16,6.936575859022639
17,0.5036739496428027
18,10.205435144706343
2,1, 1, 1, 0,17,45.00,60.00,Tuesday
7,-1.1
8,0.0
9,0.0
10,0.0
11,0.0
12,0.0
13,0.0
14,9.692190158691771
15,-2.6690346494798828
16,6.905248340208175
17,0.57251827928593
18,10.111458805385759
2,1, 1, 1, 0,18, 0.00,15.00,Tuesday
7,-1.25
8,0.0
9,0.0
10,0.0
11,0.0
12,0.0
13,0.0
14,9.62201816406938
15,-2.817850494146443
16,6.800371481298441
17,0.43677269332636117
18,10.03482798376664
2,1, 1, 1, 0,18,15.00,30.00,Tuesday
7,-1.4
8,0.0
9,0.0
10,0.0
11,0.0
12,0.0
13,0.0
14,9.55750402564374
15,-2.970389956747775
16,6.711948972548157
17,0.30752856464243907
18,9.969531008948799
2,1, 1, 1, 0,18,30.00,45.00,Tuesday
7,-1.5499999999999999
8,0.0
9,0.0
10,0.0
11,0.0
12,0.0
13,0.0
14,9.49707680471234
15,-3.122585779488697
16,6.628179060118896
17,0.1791736581379837
18,9.909957630347029
2,1, 1, 1, 0,18,45.00,60.00,Tuesday
7,-1.7
8,0.0
9,0.0
10,0.0
11,0.0
12,0.0
13,0.0
14,9.438430404490479
15,-3.2749521381304689
16,6.547075558949359
17,0.05155756962676605
18,9.852847629959625
2,1, 1, 1, 0,19, 0.00,15.00,Tuesday
7,-1.825
8,0.0
9,0.0
10,0.0
11,0.0
12,0.0
13,0.0
14,9.401925442983348
15,-3.1389799304033798
16,6.428467205447362
17,-0.17386748722083213
18,9.79972485550347
2,1, 1, 1, 0,19,15.00,30.00,Tuesday
7,-1.9500000000000002
8,0.0
9,0.0
10,0.0
11,0.0
12,0.0
13,0.0
14,9.36488911156646
15,-3.0829243260992289
16,6.326931377384085
17,-0.3862929839077083
18,9.752408486164973
2,1, 1, 1, 0,19,30.00,45.00,Tuesday
7,-2.075
8,0.0
9,0.0
10,0.0
11,0.0
12,0.0
13,0.0
14,9.323727273540995
15,-3.159729551192561
16,6.259759099278199
17,-0.5198879800087184
18,9.70998055463583
2,1, 1, 1, 0,19,45.00,60.00,Tuesday
7,-2.2
8,0.0
9,0.0
10,0.0
11,0.0
12,0.0
13,0.0
14,9.28483971819319
15,-3.146897012361638
16,6.161642281475679
17,-0.7218221164763463
18,9.66935960608599
2,1, 1, 1, 0,20, 0.00,15.00,Tuesday
7,-1.9250000000000003
8,0.0
9,0.0
10,0.0
11,0.0
12,0.0
13,0.0
14,9.263356454257075
15,-2.848083716273129
16,6.211514023615109
17,-0.5564667768451272
18,9.631980961802452
2,1, 1, 1, 0,20,15.00,30.00,Tuesday
7,-1.6500000000000002
8,0.0
9,0.0
10,0.0
11,0.0
12,0.0
13,0.0
14,9.241251023573389
15,-2.552062893860707
16,6.246841514782318
17,-0.3605047599322688
18,9.598465595176993
2,1, 1, 1, 0,20,30.00,45.00,Tuesday
7,-1.375
8,0.0
9,0.0
10,0.0
11,0.0
12,0.0
13,0.0
14,9.221380828608666
15,-2.25717169486866
16,6.28779399529617
17,-0.1698528555136818
18,9.568193615318146
2,1, 1, 1, 0,20,45.00,60.00,Tuesday
7,-1.1
8,0.0
9,0.0
10,0.0
11,0.0
12,0.0
13,0.0
14,9.203275101784462
15,-1.9634489846423909
16,6.33152815883534
17,0.02352122801863743
18,9.540265529363392
2,1, 1, 1, 0,21, 0.00,15.00,Tuesday
7,-1.25
8,0.0
9,0.0
10,0.0
11,0.0
12,0.0
13,0.0
14,9.146436554929807
15,-2.2351365042939639
16,6.306385576287994
17,0.01244262405026575
18,9.507946899295062
2,1, 1, 1, 0,21,15.00,30.00,Tuesday
7,-1.4
8,0.0
9,0.0
10,0.0
11,0.0
12,0.0
13,0.0
14,9.090326723148847
15,-2.446659838008043
16,6.251005463365914
17,-0.04740847271114035
18,9.466423210488126
2,1, 1, 1, 0,21,30.00,45.00,Tuesday
7,-1.5499999999999999
8,0.0
9,0.0
10,0.0
11,0.0
12,0.0
13,0.0
14,9.021803659949305
15,-2.7783747467232109
16,6.224793200585111
17,-0.045426970288531268
18,9.41538045199508
2,1, 1, 1, 0,21,45.00,60.00,Tuesday
7,-1.7
8,0.0
9,0.0
10,0.0
11,0.0
12,0.0
13,0.0
14,8.948070764393116
15,-3.2156927937403174
16,6.196094315341043
17,-0.002086554810830421
18,9.357251307272224
2,1, 1, 1, 0,22, 0.00,15.00,Tuesday
7,-1.5499999999999999
8,0.0
9,0.0
10,0.0
11,0.0
12,0.0
13,0.0
14,8.937841755236315
15,-2.745322913443144
16,6.1286723898044219
17,-0.06105872197474582
18,9.304559488100429
2,1, 1, 1, 0,22,15.00,30.00,Tuesday
7,-1.4
8,0.0
9,0.0
10,0.0
11,0.0
12,0.0
13,0.0
14,8.91814889845554
15,-2.4268458736097697
16,6.101726112152505
17,-0.07893129859115789
18,9.26409337257579
2,1, 1, 1, 0,22,30.00,45.00,Tuesday
7,-1.25
8,0.0
9,0.0
10,0.0
11,0.0
12,0.0
13,0.0
14,8.89808954917012
15,-2.212011202768592
16,6.103052887848889
17,-0.02730244815933247
18,9.233756011206593
2,1, 1, 1, 0,22,45.00,60.00,Tuesday
7,-1.1
8,0.0
9,0.0
10,0.0
11,0.0
12,0.0
13,0.0
14,8.88165805469652
15,-1.938827289700091
16,6.089325839760818
17,-0.019562107788715367
18,9.208320613173845
2,1, 1, 1, 0,23, 0.00,15.00,Tuesday
7,-1.25
8,0.0
9,0.0
10,0.0
11,0.0
12,0.0
13,0.0
14,8.823298163725858
15,-2.242106795826421
16,5.973894366451361
17,-0.2820874496583201
18,9.177147019756303
2,1, 1, 1, 0,23,15.00,30.00,Tuesday
7,-1.4
8,0.0
9,0.0
10,0.0
11,0.0
12,0.0
13,0.0
14,8.767143280969912
15,-2.546863602230882
16,5.850224089948483
17,-0.5586376673783775
18,9.135440559731338
2,1, 1, 1, 0,23,30.00,45.00,Tuesday
7,-1.5499999999999999
8,0.0
9,0.0
10,0.0
11,0.0
12,0.0
13,0.0
14,8.705987986935393
15,-2.8522752276760769
16,5.724640680997027
17,-0.8364884528563152
18,9.08476967203383
2,1, 1, 1, 0,23,45.00,60.00,Tuesday
7,-1.7
8,0.0
9,0.0
10,0.0
11,0.0
12,0.0
13,0.0
14,8.64087211509103
15,-3.1580305170785887
16,5.595057144038833
17,-1.1160746720788098
18,9.028342330775054
2,1, 1, 1, 0,24, 0.00,15.00,Tuesday
7,-1.7
8,0.0
9,0.0
10,0.0
11,0.0
12,0.0
13,0.0
14,8.591528746220945
15,-3.2123580160336306
16,5.5367942292890579
17,-1.1817206711847348
18,8.972037684132781
2,1, 1, 1, 0,24,15.00,30.00,Tuesday
7,-1.7
8,0.0
9,0.0
10,0.0
11,0.0
12,0.0
13,0.0
14,8.540241252026421
15,-3.267217626095939
16,5.48144470312684
17,-1.244324640561615
18,8.918753775625916
2,1, 1, 1, 0,24,30.00,45.00,Tuesday
7,-1.7
8,0.0
9,0.0
10,0.0
11,0.0
12,0.0
13,0.0
14,8.4902658282167
15,-3.3219670759140027
16,5.426018750657704
17,-1.3069463491775082
18,8.868231671374984
2,1, 1, 1, 0,24,45.00,60.00,Tuesday
7,-1.7
8,0.0
9,0.0
10,0.0
11,0.0
12,0.0
13,0.0
14,8.441219412460905
15,-3.376721278536179
16,5.37152977980179
17,-1.3693819626664663
18,8.819268588356755
End of Data
 Number of Records Written=        1152
