Program Version,EnergyPlus, Version 9.5.0-de239b2e5f, YMD=2022.11.22 15:33
1,5,Environment Title[],Latitude[deg],Longitude[deg],Time Zone[],Elevation[m]
2,8,Day of Simulation[],Month[],Day of Month[],DST Indicator[1=yes 0=no],Hour[],StartMinute[],EndMinute[],DayType
3,5,Cumulative Day of Simulation[],Month[],Day of Month[],DST Indicator[1=yes 0=no],DayType  ! When Daily Report Variables Requested
4,2,Cumulative Days of Simulation[],Month[]  ! When Monthly Report Variables Requested
5,1,Cumulative Days of Simulation[] ! When Run Period Report Variables Requested
6,1,Calendar Year of Simulation[] ! When Annual Report Variables Requested
7,1,Environment,Site Outdoor Air Drybulb Temperature [C] !TimeStep
8,1,ZONE ONE,Zone Windows Total Transmitted Solar Radiation Rate [W] !TimeStep
9,1,ZN001:WALL001,Surface Outside Face Sunlit Fraction [] !TimeStep
10,1,ZN001:WALL001,Surface Outside Face Incident Solar Radiation Rate per Area [W/m2] !TimeStep
11,1,ZN001:WALL001:WIN001,Surface Outside Face Sunlit Fraction [] !TimeStep
12,1,ZN001:WALL001:WIN001,Surface Outside Face Incident Solar Radiation Rate per Area [W/m2] !TimeStep
13,1,ZN001:WALL001:WIN001,Surface Window Transmitted Solar Radiation Rate [W] !TimeStep
14,1,ZN001:WALL001,Surface Inside Face Temperature [C] !TimeStep
15,1,ZN001:WALL001,Surface Outside Face Temperature [C] !TimeStep
16,1,ZN001:WALL001:WIN001,Surface Inside Face Temperature [C] !TimeStep
17,1,ZN001:WALL001:WIN001,Surface Outside Face Temperature [C] !TimeStep
18,1,ZONE ONE,Zone Mean Air Temperature [C] !TimeStep
End of Data Dictionary
1,RUN PERIOD 1,  41.98, -87.92,  -6.00, 201.00
2,1, 1, 1, 0, 1, 0.00,15.00,Tuesday
7,-4.324999999999999
8,0.0
9,0.0
10,0.0
11,0.0
12,0.0
13,0.0
14,-0.19828469682860165
15,-6.007852539710514
16,-1.2124458164579438
17,-5.570007749321633
18,0.10362416339855728
2,1, 1, 1, 0, 1,15.00,30.00,Tuesday
7,-6.949999999999999
8,0.0
9,0.0
10,0.0
11,0.0
12,0.0
13,0.0
14,-0.3678514472407313
15,-8.475769522004518
16,-1.7651914395124209
17,-7.7125735490014339
18,0.028384385860935836
2,1, 1, 1, 0, 1,30.00,45.00,Tuesday
7,-9.575
8,0.0
9,0.0
10,0.0
11,0.0
12,0.0
13,0.0
14,-0.5575864286837424
15,-10.952453967487003
16,-2.3168804478478934
17,-9.86191885866549
18,-0.07950625628362133
2,1, 1, 1, 0, 1,45.00,60.00,Tuesday
7,-12.2
8,0.0
9,0.0
10,0.0
11,0.0
12,0.0
13,0.0
14,-0.763192241182915
15,-13.435598140984885
16,-2.8816637417126005
17,-12.019808404472429
18,-0.21158190038841535
2,1, 1, 1, 0, 2, 0.00,15.00,Tuesday
7,-12.075
8,0.0
9,0.0
10,0.0
11,0.0
12,0.0
13,0.0
14,-0.809479782847917
15,-13.237423944302464
16,-2.95009971242024
17,-11.876816765732884
18,-0.3320364868515248
2,1, 1, 1, 0, 2,15.00,30.00,Tuesday
7,-11.95
8,0.0
9,0.0
10,0.0
11,0.0
12,0.0
13,0.0
14,-0.8723820248485744
15,-13.060011911461297
16,-2.971146194477342
17,-11.720152856275093
18,-0.4226133788366916
2,1, 1, 1, 0, 2,30.00,45.00,Tuesday
7,-11.825
8,0.0
9,0.0
10,0.0
11,0.0
12,0.0
13,0.0
14,-0.9190349424376052
15,-12.881359428677133
16,-2.988532140268717
17,-11.56322879222688
18,-0.48665113239743759
2,1, 1, 1, 0, 2,45.00,60.00,Tuesday
7,-11.7
8,0.0
9,0.0
10,0.0
11,0.0
12,0.0
13,0.0
14,-0.9545841853929274
15,-12.702760635765765
16,-2.993507083894883
17,-11.404137356825231
18,-0.5339759177354336
2,1, 1, 1, 0, 3, 0.00,15.00,Tuesday
7,-11.549999999999999
8,0.0
9,0.0
10,0.0
11,0.0
12,0.0
13,0.0
14,-0.9886261015315453
15,-12.579187212440179
16,-2.9938283641266709
17,-11.278908588634068
18,-0.573377740745264
2,1, 1, 1, 0, 3,15.00,30.00,Tuesday
7,-11.399999999999999
8,0.0
9,0.0
10,0.0
11,0.0
12,0.0
13,0.0
14,-1.018068118611977
15,-12.457082957502149
16,-2.994481686480185
17,-11.146688546734027
18,-0.6095463900854767
2,1, 1, 1, 0, 3,30.00,45.00,Tuesday
7,-11.25
8,0.0
9,0.0
10,0.0
11,0.0
12,0.0
13,0.0
14,-1.0474039987755786
15,-12.336669797868641
16,-2.993087886921785
17,-11.014057602890376
18,-0.6442402863201064
2,1, 1, 1, 0, 3,45.00,60.00,Tuesday
7,-11.1
8,0.0
9,0.0
10,0.0
11,0.0
12,0.0
13,0.0
14,-1.0760408623359244
15,-12.217931091920205
16,-2.9912838906774938
17,-10.882032084964408
18,-0.6779671704772711
2,1, 1, 1, 0, 4, 0.00,15.00,Tuesday
7,-11.1
8,0.0
9,0.0
10,0.0
11,0.0
12,0.0
13,0.0
14,-1.1089929490716926
15,-12.185861464727293
16,-3.0226954005856898
17,-10.886303908227433
18,-0.7115035336446939
2,1, 1, 1, 0, 4,15.00,30.00,Tuesday
7,-11.1
8,0.0
9,0.0
10,0.0
11,0.0
12,0.0
13,0.0
14,-1.1405337315170968
15,-12.154994292853184
16,-3.052437308974447
17,-10.894029999790746
18,-0.7451702523689285
2,1, 1, 1, 0, 4,30.00,45.00,Tuesday
7,-11.1
8,0.0
9,0.0
10,0.0
11,0.0
12,0.0
13,0.0
14,-1.1722550863341226
15,-12.125874004145095
16,-3.0812629671429478
17,-10.902441405059165
18,-0.778917705694364
2,1, 1, 1, 0, 4,45.00,60.00,Tuesday
7,-11.1
8,0.0
9,0.0
10,0.0
11,0.0
12,0.0
13,0.0
14,-1.2039943791568156
15,-12.098316255292307
16,-3.109891736132681
17,-10.910884734394302
18,-0.8126375202581625
2,1, 1, 1, 0, 5, 0.00,15.00,Tuesday
7,-10.975
8,0.0
9,0.0
10,0.0
11,0.0
12,0.0
13,0.0
14,-1.2291570782943218
15,-11.975903082409405
16,-3.112061267743684
17,-10.816433360113024
18,-0.8453570170872865
2,1, 1, 1, 0, 5,15.00,30.00,Tuesday
7,-10.85
8,0.0
9,0.0
10,0.0
11,0.0
12,0.0
13,0.0
14,-1.255087460559503
15,-11.853636642557309
16,-3.113856820475803
17,-10.714962397931459
18,-0.8766534655923552
2,1, 1, 1, 0, 5,30.00,45.00,Tuesday
7,-10.725
8,0.0
9,0.0
10,0.0
11,0.0
12,0.0
13,0.0
14,-1.2800813565341105
15,-11.731314919952493
16,-3.1155567619845216
17,-10.612891542928424
18,-0.9067270632704383
2,1, 1, 1, 0, 5,45.00,60.00,Tuesday
7,-10.6
8,0.0
9,0.0
10,0.0
11,0.0
12,0.0
13,0.0
14,-1.3043368115313324
15,-11.609006701298612
16,-3.1165842330586885
17,-10.510865805085757
18,-0.935903830724034
2,1, 1, 1, 0, 6, 0.00,15.00,Tuesday
7,-10.6
8,0.0
9,0.0
10,0.0
11,0.0
12,0.0
13,0.0
14,-1.3369794883643316
15,-11.6096913576314
16,-3.1419166768387187
17,-10.510187874464237
18,-0.9656864541248555
2,1, 1, 1, 0, 6,15.00,30.00,Tuesday
7,-10.6
8,0.0
9,0.0
10,0.0
11,0.0
12,0.0
13,0.0
14,-1.3671285337227808
15,-11.610237955466055
16,-3.1690672151881928
17,-10.513603569948373
18,-0.9966806551520043
2,1, 1, 1, 0, 6,30.00,45.00,Tuesday
7,-10.6
8,0.0
9,0.0
10,0.0
11,0.0
12,0.0
13,0.0
14,-1.399923181087684
15,-11.610898715826853
16,-3.1955291351597454
17,-10.517834122185377
18,-1.0288171892558105
2,1, 1, 1, 0, 6,45.00,60.00,Tuesday
7,-10.6
8,0.0
9,0.0
10,0.0
11,0.0
12,0.0
13,0.0
14,-1.430906124879896
15,-11.611480020011108
16,-3.2228785203877239
17,-10.522614849387367
18,-1.0615418902380874
2,1, 1, 1, 0, 7, 0.00,15.00,Tuesday
7,-10.6
8,0.0
9,0.0
10,0.0
11,0.0
12,0.0
13,0.0
14,-1.460777542253789
15,-11.585110326035938
16,-3.250237373898358
17,-10.528301767337098
18,-1.0941059241534188
2,1, 1, 1, 0, 7,15.00,30.00,Tuesday
7,-10.6
8,0.0
9,0.0
10,0.0
11,0.0
12,0.0
13,0.0
14,-1.4906853340747486
15,-11.560062536506491
16,-3.2767277150480824
17,-10.533896483600245
18,-1.1261699292535324
2,1, 1, 1, 0, 7,30.00,45.00,Tuesday
7,-10.6
8,0.0
9,0.0
10,0.0
11,0.0
12,0.0
13,0.0
14,-1.520367172776595
15,-11.536286388462536
16,-3.3029803746171639
17,-10.539376111343984
18,-1.15776795648826
2,1, 1, 1, 0, 7,45.00,60.00,Tuesday
7,-10.6
8,0.0
9,0.0
10,0.0
11,0.0
12,0.0
13,0.0
14,-1.5497922753559804
15,-11.51370100322311
16,-3.3289496162424259
17,-10.544656929946314
18,-1.189026864146795
2,1, 1, 1, 0, 8, 0.00,15.00,Tuesday
7,-10.45
8,0.0
9,0.0
10,0.0
11,0.0
12,0.0
13,0.0
14,-1.5813843890960378
15,-11.46657642178809
16,-3.3444081249996318
17,-10.506442790061442
18,-1.2206479759909377
2,1, 1, 1, 0, 8,15.00,30.00,Tuesday
7,-10.3
8,43.92919895502562
9,1.0
10,22.819555959623899
11,1.0
12,22.819555959623899
13,43.92919895502562
14,-1.5129982252966288
15,-9.794073319327204
16,-2.9457664750945016
17,-10.137974550929357
18,-1.2395959775633912
2,1, 1, 1, 0, 8,30.00,45.00,Tuesday
7,-10.15
8,217.30754917639187
9,1.0
10,109.75755355442667
11,1.0
12,109.75755355442667
13,217.30754917639187
14,-1.1763881701674018
15,-3.4403740008584937
16,-1.2585319395946045
17,-8.784890429414986
18,-1.2115974894755395
2,1, 1, 1, 0, 8,45.00,60.00,Tuesday
7,-10.0
8,399.4699535945363
9,1.0
10,195.8764694434918
11,1.0
12,195.8764694434918
13,399.4699535945363
14,-0.7612707240887116
15,3.056779227460381
16,0.4547530609564774
17,-7.477268388314769
18,-1.130033602628556
2,1, 1, 1, 0, 9, 0.00,15.00,Tuesday
7,-9.725
8,585.1489314874541
9,1.0
10,278.97248314719988
11,1.0
12,278.97248314719988
13,585.1489314874541
14,-0.455796498519662
15,8.238610407054792
16,1.978577616783582
17,-6.320868294338311
18,-1.0027776250912557
2,1, 1, 1, 0, 9,15.00,30.00,Tuesday
7,-9.45
8,784.787199245388
9,1.0
10,364.91995730569456
11,1.0
12,364.91995730569456
13,784.787199245388
14,-0.11193625791263844
15,13.32084631378435
16,3.4992936870675637
17,-5.176991260033276
18,-0.8387205648088493
2,1, 1, 1, 0, 9,30.00,45.00,Tuesday
7,-9.175
8,921.7412871041541
9,1.0
10,420.35879993239237
11,1.0
12,420.35879993239237
13,921.7412871041541
14,0.11196548533766729
15,16.081259875405487
16,4.506508541134963
17,-4.476228772519335
18,-0.6555891298316117
2,1, 1, 1, 0, 9,45.00,60.00,Tuesday
7,-8.9
8,1065.0474005418728
9,1.0
10,478.00138373643099
11,1.0
12,478.00138373643099
13,1065.0474005418728
14,0.38026669415217925
15,19.077249067733417
16,5.5176431655339119
17,-3.7465304759936659
18,-0.46008541327991556
2,1, 1, 1, 0,10, 0.00,15.00,Tuesday
7,-8.350000000000002
8,1212.3134782022194
9,1.0
10,536.9185644770597
11,1.0
12,536.9185644770597
13,1212.3134782022194
14,0.5859819958325655
15,20.19961391815895
16,6.562650335033368
17,-2.9635276884631596
18,-0.25006743544792578
2,1, 1, 1, 0,10,15.00,30.00,Tuesday
7,-7.800000000000001
8,1365.083720287943
9,1.0
10,598.0969199229219
11,1.0
12,598.0969199229219
13,1365.083720287943
14,0.8142702715681428
15,21.456218763371653
16,7.626219121486429
17,-2.173697715236244
18,-0.029043651131464126
2,1, 1, 1, 0,10,30.00,45.00,Tuesday
7,-7.25
8,1468.1999493442264
9,1.0
10,637.6133352894237
11,1.0
12,637.6133352894237
13,1468.1999493442264
14,0.9772926541356285
15,21.519187199624544
16,8.373060728889357
17,-1.648995370786679
18,0.18967977445817853
2,1, 1, 1, 0,10,45.00,60.00,Tuesday
7,-6.7
8,1569.705828175432
9,1.0
10,676.6412284283772
11,1.0
12,676.6412284283772
13,1569.705828175432
14,1.1534999346443409
15,21.681968556795398
16,9.092344010019929
17,-1.117754926243265
18,0.3987197544043429
2,1, 1, 1, 0,11, 0.00,15.00,Tuesday
7,-6.275
8,1669.2149873773784
9,1.0
10,715.0112779846514
11,1.0
12,715.0112779846514
13,1669.2149873773784
14,1.4070142364095002
15,23.779006840405068
16,9.835062524915316
17,-0.36140877897815928
18,0.6019694190261139
2,1, 1, 1, 0,11,15.00,30.00,Tuesday
7,-5.85
8,1766.190944948854
9,1.0
10,752.5077794605232
11,1.0
12,752.5077794605232
13,1766.190944948854
14,1.6448746721780279
15,25.71359898004634
16,10.564403737699422
17,0.37037812787178839
18,0.8042265222098622
2,1, 1, 1, 0,11,30.00,45.00,Tuesday
7,-5.425
8,1740.4832380327117
9,1.0
10,742.5988714321785
11,1.0
12,742.5988714321785
13,1740.4832380327117
14,1.7694574851766303
15,25.56523722625551
16,10.624165955792762
17,0.6500840311319962
18,0.99174552169599
2,1, 1, 1, 0,11,45.00,60.00,Tuesday
7,-5.0
8,1702.0518597121073
9,1.0
10,727.8169025450712
11,1.0
12,727.8169025450712
13,1702.0518597121073
14,1.8908274435763378
15,25.335342032146508
16,10.591245985575882
17,0.893281394557448
18,1.1554082080346596
2,1, 1, 1, 0,12, 0.00,15.00,Tuesday
7,-4.575
8,1635.6982778457269
9,1.0
10,700.3759009170325
11,1.0
12,700.3759009170325
13,1635.6982778457269
14,1.968271977927981
15,24.59218454794689
16,10.381579313342286
17,1.064626388960562
18,1.2914862636720717
2,1, 1, 1, 0,12,15.00,30.00,Tuesday
7,-4.15
8,1584.1822507707826
9,1.0
10,681.6705029034473
11,1.0
12,681.6705029034473
13,1584.1822507707826
14,2.0628824943501655
15,24.261162371064363
16,10.27694437966693
17,1.3133346516757457
18,1.4063880892486239
2,1, 1, 1, 0,12,30.00,45.00,Tuesday
7,-3.7249999999999998
8,1386.7884648429923
9,1.0
10,602.01865277251
11,1.0
12,602.01865277251
13,1386.7884648429923
14,1.9692293979844283
15,21.232591143698586
16,9.31012321895929
17,1.0158572748201778
18,1.4853744027776175
2,1, 1, 1, 0,12,45.00,60.00,Tuesday
7,-3.3
8,1130.2896420139664
9,1.0
10,493.55004396206007
11,1.0
12,493.55004396206007
13,1130.2896420139664
14,1.7947514012100344
15,17.053481153639078
16,7.8572013458392579
17,0.43927214881517787
18,1.5135013137367573
2,1, 1, 1, 0,13, 0.00,15.00,Tuesday
7,-3.0249999999999996
8,926.9697700398867
9,1.0
10,412.335026418112
11,1.0
12,412.335026418112
13,926.9697700398867
14,1.6792085710603267
15,14.20804052904769
16,6.724833365372604
17,0.03816775745525547
18,1.4978237266981059
2,1, 1, 1, 0,13,15.00,30.00,Tuesday
7,-2.75
8,673.6692877186736
9,1.0
10,305.94037763660148
11,1.0
12,305.94037763660148
13,673.6692877186736
14,1.452794031296404
15,10.033915350571027
16,5.177251652158361
17,-0.6192640950662849
18,1.442360251068934
2,1, 1, 1, 0,13,30.00,45.00,Tuesday
7,-2.475
8,612.4821658219637
9,1.0
10,281.0763483922329
11,1.0
12,281.0763483922329
13,612.4821658219637
14,1.4308346388300475
15,9.519375742567457
16,4.826027493640538
17,-0.5275443939237903
18,1.3795609082910259
2,1, 1, 1, 0,13,45.00,60.00,Tuesday
7,-2.2
8,552.552520277972
9,1.0
10,256.7721209415886
11,1.0
12,256.7721209415886
13,552.552520277972
14,1.4026206630068293
15,8.912839997831892
16,4.512397631913473
17,-0.41465328718186358
18,1.329639106277234
2,1, 1, 1, 0,14, 0.00,15.00,Tuesday
7,-1.9250000000000003
8,449.8411357962977
9,1.0
10,210.73276284570657
11,1.0
12,210.73276284570657
13,449.8411357962977
14,1.3126203906790593
15,7.363477946787064
16,3.8390420163140108
17,-0.5556037703942707
18,1.2878202092221523
2,1, 1, 1, 0,14,15.00,30.00,Tuesday
7,-1.6500000000000002
8,396.7537665575463
9,1.0
10,189.38488290342594
11,1.0
12,189.38488290342594
13,396.7537665575463
14,1.2930726898215839
15,6.955893061761594
16,3.5400842153756004
17,-0.4706755547757666
18,1.2533539935772267
2,1, 1, 1, 0,14,30.00,45.00,Tuesday
7,-1.375
8,379.3266897359249
9,1.0
10,179.3940297802914
11,1.0
12,179.3940297802914
13,379.3266897359249
14,1.299709497649524
15,7.075252908164389
16,3.4438321943555367
17,-0.2637771233278272
18,1.2274071544164347
2,1, 1, 1, 0,14,45.00,60.00,Tuesday
7,-1.1
8,361.3465167603399
9,1.0
10,169.43349014176136
11,1.0
12,169.43349014176136
13,361.3465167603399
14,1.3029012249873955
15,7.17152129555978
16,3.3470273737484605
17,-0.058658782811335189
18,1.2094051887572038
2,1, 1, 1, 0,15, 0.00,15.00,Tuesday
7,-1.1
8,379.75098608822659
9,1.0
10,178.15692317953907
11,1.0
12,178.15692317953907
13,379.75098608822659
14,1.3467755840286922
15,7.984864003405755
16,3.496690242046782
17,0.07145129087211899
18,1.2011309040153183
2,1, 1, 1, 0,15,15.00,30.00,Tuesday
7,-1.1
8,356.65544888641286
9,1.0
10,166.40516310952945
11,1.0
12,166.40516310952945
13,356.65544888641286
14,1.3167207821823306
15,7.620882947554478
16,3.3140217000348004
17,-0.021631331941136979
18,1.19678369918571
2,1, 1, 1, 0,15,30.00,45.00,Tuesday
7,-1.1
8,299.30897077907687
9,1.0
10,140.8967369711617
11,1.0
12,140.8967369711617
13,299.30897077907687
14,1.2398142671955928
15,6.4123063753476059
16,2.8773344350485106
17,-0.2997672007595611
18,1.1843719131099518
2,1, 1, 1, 0,15,45.00,60.00,Tuesday
7,-1.1
8,245.01101588106585
9,1.0
10,116.57355796743004
11,1.0
12,116.57355796743004
13,245.01101588106585
14,1.1565431547695182
15,5.199582272529994
16,2.441443621567089
17,-0.5926273694361726
18,1.1582250216325108
2,1, 1, 1, 0,16, 0.00,15.00,Tuesday
7,-1.1
8,193.3619366811613
9,1.0
10,93.14939272689483
11,1.0
12,93.14939272689483
13,193.3619366811613
14,1.0697337829305985
15,4.133573950890069
16,2.0218234401619386
17,-0.8281366059298989
18,1.119855959391941
2,1, 1, 1, 0,16,15.00,30.00,Tuesday
7,-1.1
8,119.36636342751545
9,1.0
10,57.94047897402063
11,1.0
12,57.94047897402063
13,119.36636342751545
14,0.9234655461262814
15,2.006061003307219
16,1.3520366392233428
17,-1.2612444483227706
18,1.0669957582966956
2,1, 1, 1, 0,16,30.00,45.00,Tuesday
7,-1.1
8,91.9639739168048
9,1.0
10,45.38251793443488
11,1.0
12,45.38251793443488
13,91.9639739168048
14,0.8721304339854944
15,1.3860687522590634
16,1.0658234592351619
17,-1.412690304104558
18,1.0069210501443776
2,1, 1, 1, 0,16,45.00,60.00,Tuesday
7,-1.1
8,63.83988587375654
9,1.0
10,32.02625108222755
11,1.0
12,32.02625108222755
13,63.83988587375654
14,0.7900220937353147
15,0.5102528705162702
16,0.7716360496049788
17,-1.5841298886093683
18,0.9454839024564062
2,1, 1, 1, 0,17, 0.00,15.00,Tuesday
7,-1.1
8,34.880124245395318
9,1.0
10,17.762198626050539
11,1.0
12,17.762198626050539
13,34.880124245395318
14,0.6800217576443532
15,-0.757989899701482
16,0.43575236922845309
17,-1.883315542507944
18,0.8800568997262515
2,1, 1, 1, 0,17,15.00,30.00,Tuesday
7,-1.1
8,0.0
9,0.0
10,0.0
11,0.0
12,0.0
13,0.0
14,0.5236768375719901
15,-2.6022071376772679
16,0.0386124435384545
17,-2.203409143908516
18,0.8005319266028602
2,1, 1, 1, 0,17,30.00,45.00,Tuesday
7,-1.1
8,0.0
9,0.0
10,0.0
11,0.0
12,0.0
13,0.0
14,0.4863195052163515
15,-2.744990597303612
16,-0.049279687491321059
17,-2.2840930274791164
18,0.7165521163092462
2,1, 1, 1, 0,17,45.00,60.00,Tuesday
7,-1.1
8,0.0
9,0.0
10,0.0
11,0.0
12,0.0
13,0.0
14,0.4317264540780813
15,-2.9494276173641578
16,-0.10525637059987503
17,-2.3722523003307289
18,0.6410424781904611
2,1, 1, 1, 0,18, 0.00,15.00,Tuesday
7,-1.25
8,0.0
9,0.0
10,0.0
11,0.0
12,0.0
13,0.0
14,0.38767016945355606
15,-3.0955469445607917
16,-0.17727478663641706
17,-2.5153219160227424
18,0.579656374507268
2,1, 1, 1, 0,18,15.00,30.00,Tuesday
7,-1.4
8,0.0
9,0.0
10,0.0
11,0.0
12,0.0
13,0.0
14,0.348403180913874
15,-3.247943935552997
16,-0.2364475580080807
17,-2.64353770148648
18,0.5311643219276926
2,1, 1, 1, 0,18,30.00,45.00,Tuesday
7,-1.5499999999999999
8,0.0
9,0.0
10,0.0
11,0.0
12,0.0
13,0.0
14,0.3124196341912826
15,-3.3996560678422944
16,-0.2942413911079029
17,-2.77706729711349
18,0.49167818819265177
2,1, 1, 1, 0,18,45.00,60.00,Tuesday
7,-1.7
8,0.0
9,0.0
10,0.0
11,0.0
12,0.0
13,0.0
14,0.2792668526668834
15,-3.551421562987817
16,-0.34895803528422678
17,-2.90973575569069
18,0.4576739304155478
2,1, 1, 1, 0,19, 0.00,15.00,Tuesday
7,-1.825
8,0.0
9,0.0
10,0.0
11,0.0
12,0.0
13,0.0
14,0.2759793727254237
15,-3.383466490707829
16,-0.3688846800122292
17,-2.9089549919913226
18,0.4307278988259394
2,1, 1, 1, 0,19,15.00,30.00,Tuesday
7,-1.9500000000000002
8,0.0
9,0.0
10,0.0
11,0.0
12,0.0
13,0.0
14,0.2718451978614944
15,-3.2993231269005296
16,-0.3838340997009482
17,-2.9209229515569179
18,0.41206514142590947
2,1, 1, 1, 0,19,30.00,45.00,Tuesday
7,-2.075
8,0.0
9,0.0
10,0.0
11,0.0
12,0.0
13,0.0
14,0.2629310458097287
15,-3.3683529060910035
16,-0.4090483382412913
17,-3.002112351562289
18,0.3998201727487026
2,1, 1, 1, 0,19,45.00,60.00,Tuesday
7,-2.2
8,0.0
9,0.0
10,0.0
11,0.0
12,0.0
13,0.0
14,0.25648563964268797
15,-3.33070647227117
16,-0.42058505359159428
17,-3.0369924913846946
18,0.3909418587919447
2,1, 1, 1, 0,20, 0.00,15.00,Tuesday
7,-1.9250000000000003
8,0.0
9,0.0
10,0.0
11,0.0
12,0.0
13,0.0
14,0.26583383111265948
15,-3.0255565721380797
16,-0.36400217458151476
17,-2.7876451603411285
18,0.38489538727373259
2,1, 1, 1, 0,20,15.00,30.00,Tuesday
7,-1.6500000000000002
8,0.0
9,0.0
10,0.0
11,0.0
12,0.0
13,0.0
14,0.2771654467815819
15,-2.723824758023761
16,-0.30609504489063968
17,-2.5345315000736265
18,0.38181664526646827
2,1, 1, 1, 0,20,30.00,45.00,Tuesday
7,-1.375
8,0.0
9,0.0
10,0.0
11,0.0
12,0.0
13,0.0
14,0.28980960015481868
15,-2.4236030867899629
16,-0.24617207507833428
17,-2.280401936244232
18,0.3814165614895252
2,1, 1, 1, 0,20,45.00,60.00,Tuesday
7,-1.1
8,0.0
9,0.0
10,0.0
11,0.0
12,0.0
13,0.0
14,0.30385511249871896
15,-2.1248022854111539
16,-0.18464669113052424
17,-2.0254171857809526
18,0.38314734527190616
2,1, 1, 1, 0,21, 0.00,15.00,Tuesday
7,-1.25
8,0.0
9,0.0
10,0.0
11,0.0
12,0.0
13,0.0
14,0.27237926420677896
15,-2.4220157201966705
16,-0.23527153885135022
17,-2.2276376663573957
18,0.38139209198411885
2,1, 1, 1, 0,21,15.00,30.00,Tuesday
7,-1.4
8,0.0
9,0.0
10,0.0
11,0.0
12,0.0
13,0.0
14,0.2379324315082361
15,-2.647003882863602
16,-0.2893724338027255
17,-2.3815867983223599
18,0.3711628983508963
2,1, 1, 1, 0,21,30.00,45.00,Tuesday
7,-1.5499999999999999
8,0.0
9,0.0
10,0.0
11,0.0
12,0.0
13,0.0
14,0.19060301535219946
15,-3.011992192752542
16,-0.3591792255332962
17,-2.609357422853577
18,0.3504081613920431
2,1, 1, 1, 0,21,45.00,60.00,Tuesday
7,-1.7
8,0.0
9,0.0
10,0.0
11,0.0
12,0.0
13,0.0
14,0.13826822355368949
15,-3.4873523107472779
16,-0.44532740875092716
17,-2.8617385579755707
18,0.3202613857298662
2,1, 1, 1, 0,22, 0.00,15.00,Tuesday
7,-1.5499999999999999
8,0.0
9,0.0
10,0.0
11,0.0
12,0.0
13,0.0
14,0.1634149525385073
15,-2.97175520824643
16,-0.40841936324534347
17,-2.597957815978475
18,0.29424121186669086
2,1, 1, 1, 0,22,15.00,30.00,Tuesday
7,-1.4
8,0.0
9,0.0
10,0.0
11,0.0
12,0.0
13,0.0
14,0.18031928121723346
15,-2.622583321503696
16,-0.35551320779575237
17,-2.3802524473871928
18,0.28046724395114039
2,1, 1, 1, 0,22,30.00,45.00,Tuesday
7,-1.25
8,0.0
9,0.0
10,0.0
11,0.0
12,0.0
13,0.0
14,0.19404482605189619
15,-2.393946477416206
16,-0.3108859500556491
17,-2.223172159755677
18,0.27766344145381868
2,1, 1, 1, 0,22,45.00,60.00,Tuesday
7,-1.1
8,0.0
9,0.0
10,0.0
11,0.0
12,0.0
13,0.0
14,0.211415979324209
15,-2.095988480124849
16,-0.2583848768022108
17,-2.006473914789467
18,0.28121641215454709
2,1, 1, 1, 0,23, 0.00,15.00,Tuesday
7,-1.25
8,0.0
9,0.0
10,0.0
11,0.0
12,0.0
13,0.0
14,0.1794741082565276
15,-2.400094918823111
16,-0.3278393318354347
17,-2.294867687340968
18,0.282034809481653
2,1, 1, 1, 0,23,15.00,30.00,Tuesday
7,-1.4
8,0.0
9,0.0
10,0.0
11,0.0
12,0.0
13,0.0
14,0.1478372334113866
15,-2.70461049346039
16,-0.41168718106922599
17,-2.590533717787082
18,0.274339149308354
2,1, 1, 1, 0,23,30.00,45.00,Tuesday
7,-1.5499999999999999
8,0.0
9,0.0
10,0.0
11,0.0
12,0.0
13,0.0
14,0.1135591650673481
15,-3.009618456780731
16,-0.4967158756774097
17,-2.8861621290632799
18,0.2577928125613606
2,1, 1, 1, 0,23,45.00,60.00,Tuesday
7,-1.7
8,0.0
9,0.0
10,0.0
11,0.0
12,0.0
13,0.0
14,0.07495865664126773
15,-3.3150053391408886
16,-0.5843896169342315
17,-3.182099127242168
18,0.2343333924443961
2,1, 1, 1, 0,24, 0.00,15.00,Tuesday
7,-1.7
8,0.0
9,0.0
10,0.0
11,0.0
12,0.0
13,0.0
14,0.05598022724512613
15,-3.3684492252006086
16,-0.6181624428071473
17,-3.2394216870588368
18,0.2089786747431532
2,1, 1, 1, 0,24,15.00,30.00,Tuesday
7,-1.7
8,0.0
9,0.0
10,0.0
11,0.0
12,0.0
13,0.0
14,0.03386197224748343
15,-3.42285550475591
16,-0.6470416669060342
17,-3.297370475056937
18,0.18496189951628753
2,1, 1, 1, 0,24,30.00,45.00,Tuesday
7,-1.7
8,0.0
9,0.0
10,0.0
11,0.0
12,0.0
13,0.0
14,0.012172043229689829
15,-3.477125197593353
16,-0.6767213742198237
17,-3.355638908882895
18,0.16283501986526295
2,1, 1, 1, 0,24,45.00,60.00,Tuesday
7,-1.7
8,0.0
9,0.0
10,0.0
11,0.0
12,0.0
13,0.0
14,-0.009043537467529109
15,-3.531391439266055
16,-0.7059091568087297
17,-3.4137620534662576
18,0.1420159130549792
End of Data
 Number of Records Written=        1152
